Title = Result/Post/Linear_Advection_2D/FVM/MLP_u1_Least_Square/Sine_Wave_2D/Quad50/
FileType = Solution
Variables = q
Zone T = Result/Post/Linear_Advection_2D/FVM/MLP_u1_Least_Square/Sine_Wave_2D/Quad50/
ZoneType = FETriangle
Nodes = 10000
Elements = 5000
DataPacking = Block
StrandID = 13
SolutionTime = 1.2
-0.4209968911514722 -0.4209968911514722 -0.4209968911514722 -0.4209968911514722 -0.4045731825855607 -0.4045731825855607 -0.4045731825855607 -0.4045731825855607 -0.3760324892114822 -0.3760324892114822 
-0.3760324892114822 -0.3760324892114822 -0.340361048706208 -0.340361048706208 -0.340361048706208 -0.340361048706208 -0.2992724580554599 -0.2992724580554599 -0.2992724580554599 
-0.2992724580554599 -0.2537146589221011 -0.2537146589221011 -0.2537146589221011 -0.2537146589221011 -0.2044675463657745 -0.2044675463657745 -0.2044675463657745 -0.2044675463657745 
-0.1522281536469392 -0.1522281536469392 -0.1522281536469392 -0.1522281536469392 -0.09761937642164438 -0.09761937642164438 -0.09761937642164438 -0.09761937642164438 -0.04122111761959905 
-0.04122111761959905 -0.04122111761959905 -0.04122111761959905 0.01636512122052752 0.01636512122052752 0.01636512122052752 0.01636512122052752 0.07444135655325079 0.07444135655325079 
0.07444135655325079 0.07444135655325079 0.1321573000933949 0.1321573000933949 0.1321573000933949 0.1321573000933949 0.1884943857934127 0.1884943857934127 0.1884943857934127 
0.1884943857934127 0.2422997296210853 0.2422997296210853 0.2422997296210853 0.2422997296210853 0.2923686415990393 0.2923686415990393 0.2923686415990393 0.2923686415990393 
0.3375589045355064 0.3375589045355064 0.3375589045355064 0.3375589045355064 0.3769042084987438 0.3769042084987438 0.3769042084987438 0.3769042084987438 0.4096902259749707 
0.4096902259749707 0.4096902259749707 0.4096902259749707 0.4354690431754099 0.4354690431754099 0.4354690431754099 0.4354690431754099 0.4540159562324651 0.4540159562324651 
0.4540159562324651 0.4540159562324651 0.4652472841458822 0.4652472841458822 0.4652472841458822 0.4652472841458822 0.4691435537804542 0.4691435537804542 0.4691435537804542 
0.4691435537804542 0.4658056538036437 0.4658056538036437 0.4658056538036437 0.4658056538036437 0.4552793784485832 0.4552793784485832 0.4552793784485832 0.4552793784485832 
0.4376832591885819 0.4376832591885819 0.4376832591885819 0.4376832591885819 0.4132409872738081 0.4132409872738081 0.4132409872738081 0.4132409872738081 0.3822910681875499 
0.3822910681875499 0.3822910681875499 0.3822910681875499 0.3452903349091606 0.3452903349091606 0.3452903349091606 0.3452903349091606 0.3028083406713621 0.3028083406713621 
0.3028083406713621 0.3028083406713621 0.2555206116404944 0.2555206116404944 0.2555206116404944 0.2555206116404944 0.2041928032321254 0.2041928032321254 0.2041928032321254 
0.2041928032321254 0.1496521480117771 0.1496521480117771 0.1496521480117771 0.1496521480117771 0.09276212028296517 0.09276212028296517 0.09276212028296517 0.09276212028296517 
0.03441233843673929 0.03441233843673929 0.03441233843673929 0.03441233843673929 -0.02448259145409524 -0.02448259145409524 -0.02448259145409524 -0.02448259145409524 -0.08299202226767577 
-0.08299202226767577 -0.08299202226767577 -0.08299202226767577 -0.14018937340764 -0.14018937340764 -0.14018937340764 -0.14018937340764 -0.1951725140336166 -0.1951725140336166 
-0.1951725140336166 -0.1951725140336166 -0.2470775537003205 -0.2470775537003205 -0.2470775537003205 -0.2470775537003205 -0.2950886876296339 -0.2950886876296339 -0.2950886876296339 
-0.2950886876296339 -0.3384482870671136 -0.3384482870671136 -0.3384482870671136 -0.3384482870671136 -0.3764731804196187 -0.3764731804196187 -0.3764731804196187 -0.3764731804196187 
-0.4085553422668177 -0.4085553422668177 -0.4085553422668177 -0.4085553422668177 -0.4342220646641064 -0.4342220646641064 -0.4342220646641064 -0.4342220646641064 -0.4529448450966023 
-0.4529448450966023 -0.4529448450966023 -0.4529448450966023 -0.4649016438848775 -0.4649016438848775 -0.4649016438848775 -0.4649016438848775 -0.4680867175950194 -0.4680867175950194 
-0.4680867175950194 -0.4680867175950194 -0.4689174723345793 -0.4689174723345793 -0.4689174723345793 -0.4689174723345793 -0.4450224075504037 -0.4450224075504037 -0.4450224075504037 
-0.4450224075504037 -0.3613655950596261 -0.3613655950596261 -0.3613655950596261 -0.3613655950596261 -0.346778401008818 -0.346778401008818 -0.346778401008818 -0.346778401008818 
-0.3221628167099285 -0.3221628167099285 -0.3221628167099285 -0.3221628167099285 -0.2916490544624086 -0.2916490544624086 -0.2916490544624086 -0.2916490544624086 -0.2565218863461828 
-0.2565218863461828 -0.2565218863461828 -0.2565218863461828 -0.2175430611926058 -0.2175430611926058 -0.2175430611926058 -0.2175430611926058 -0.17536746688805 -0.17536746688805 
-0.17536746688805 -0.17536746688805 -0.1305947548156083 -0.1305947548156083 -0.1305947548156083 -0.1305947548156083 -0.08376756955598326 -0.08376756955598326 -0.08376756955598326 
-0.08376756955598326 -0.0353951041382267 -0.0353951041382267 -0.0353951041382267 -0.0353951041382267 0.01399419843709581 0.01399419843709581 0.01399419843709581 0.01399419843709581 
0.0637927757705381 0.0637927757705381 0.0637927757705381 0.0637927757705381 0.1132696596525103 0.1132696596525103 0.1132696596525103 0.1132696596525103 0.1615565326251566 
0.1615565326251566 0.1615565326251566 0.1615565326251566 0.2076728413693189 0.2076728413693189 0.2076728413693189 0.2076728413693189 0.2505918110197766 0.2505918110197766 
0.2505918110197766 0.2505918110197766 0.2893360421251383 0.2893360421251383 0.2893360421251383 0.2893360421251383 0.3230754500504897 0.3230754500504897 0.3230754500504897 
0.3230754500504897 0.3511946390708088 0.3511946390708088 0.3511946390708088 0.3511946390708088 0.3733064692485192 0.3733064692485192 0.3733064692485192 0.3733064692485192 
0.3892134797966702 0.3892134797966702 0.3892134797966702 0.3892134797966702 0.3988404557060221 0.3988404557060221 0.3988404557060221 0.3988404557060221 0.4021942335845464 
0.4021942335845464 0.4021942335845464 0.4021942335845464 0.3993317491197483 0.3993317491197483 0.3993317491197483 0.3993317491197483 0.3903123953575341 0.3903123953575341 
0.3903123953575341 0.3903123953575341 0.3752344096912968 0.3752344096912968 0.3752344096912968 0.3752344096912968 0.354286380487038 0.354286380487038 0.354286380487038 
0.354286380487038 0.3277603627531397 0.3277603627531397 0.3277603627531397 0.3277603627531397 0.2960451794235073 0.2960451794235073 0.2960451794235073 0.2960451794235073 
0.2596240120913998 0.2596240120913998 0.2596240120913998 0.2596240120913998 0.2190793213970153 0.2190793213970153 0.2190793213970153 0.2190793213970153 0.1750764456692068 
0.1750764456692068 0.1750764456692068 0.1750764456692068 0.1283273228153869 0.1283273228153869 0.1283273228153869 0.1283273228153869 0.07956542890566085 0.07956542890566085 
0.07956542890566085 0.07956542890566085 0.02954590875654575 0.02954590875654575 0.02954590875654575 0.02954590875654575 -0.02094628619144562 -0.02094628619144562 -0.02094628619144562 
-0.02094628619144562 -0.07110679522202273 -0.07110679522202273 -0.07110679522202273 -0.07110679522202273 -0.1201380552189537 -0.1201380552189537 -0.1201380552189537 -0.1201380552189537 
-0.1672698269894445 -0.1672698269894445 -0.1672698269894445 -0.1672698269894445 -0.2117665116451474 -0.2117665116451474 -0.2117665116451474 -0.2117665116451474 -0.2529303488122413 
-0.2529303488122413 -0.2529303488122413 -0.2529303488122413 -0.2901097800311527 -0.2901097800311527 -0.2901097800311527 -0.2901097800311527 -0.322716023124648 -0.322716023124648 
-0.322716023124648 -0.322716023124648 -0.3502278712158837 -0.3502278712158837 -0.3502278712158837 -0.3502278712158837 -0.3722353292447043 -0.3722353292447043 -0.3722353292447043 
-0.3722353292447043 -0.3883012545925274 -0.3883012545925274 -0.3883012545925274 -0.3883012545925274 -0.398505375948643 -0.398505375948643 -0.398505375948643 -0.398505375948643 
-0.4013937621485437 -0.4013937621485437 -0.4013937621485437 -0.4013937621485437 -0.4017288615604379 -0.4017288615604379 -0.4017288615604379 -0.4017288615604379 -0.3817700296758728 
-0.3817700296758728 -0.3817700296758728 -0.3817700296758728 -0.2687382483082885 -0.2687382483082885 -0.2687382483082885 -0.2687382483082885 -0.2580476553687654 -0.2580476553687654 
-0.2580476553687654 -0.2580476553687654 -0.2396009232699291 -0.2396009232699291 -0.2396009232699291 -0.2396009232699291 -0.2167982341697091 -0.2167982341697091 -0.2167982341697091 
-0.2167982341697091 -0.1906480029577635 -0.1906480029577635 -0.1906480029577635 -0.1906480029577635 -0.1616948160589671 -0.1616948160589671 -0.1616948160589671 -0.1616948160589671 
-0.1303931448615215 -0.1303931448615215 -0.1303931448615215 -0.1303931448615215 -0.09715954601093929 -0.09715954601093929 -0.09715954601093929 -0.09715954601093929 -0.06237887818838529 
-0.06237887818838529 -0.06237887818838529 -0.06237887818838529 -0.02642603703821208 -0.02642603703821208 -0.02642603703821208 -0.02642603703821208 0.01029696493801998 0.01029696493801998 
0.01029696493801998 0.01029696493801998 0.04732561269704586 0.04732561269704586 0.04732561269704586 0.04732561269704586 0.08410986275258209 0.08410986275258209 0.08410986275258209 
0.08410986275258209 0.1200070716625069 0.1200070716625069 0.1200070716625069 0.1200070716625069 0.1542959708925608 0.1542959708925608 0.1542959708925608 0.1542959708925608 
0.1862183748966613 0.1862183748966613 0.1862183748966613 0.1862183748966613 0.2150464600176742 0.2150464600176742 0.2150464600176742 0.2150464600176742 0.240157178687226 
0.240157178687226 0.240157178687226 0.240157178687226 0.261086435045635 0.261086435045635 0.261086435045635 0.261086435045635 0.2775419932501031 0.2775419932501031 
0.2775419932501031 0.2775419932501031 0.2893757474494743 0.2893757474494743 0.2893757474494743 0.2893757474494743 0.2965368738602469 0.2965368738602469 0.2965368738602469 
0.2965368738602469 0.2990350084316718 0.2990350084316718 0.2990350084316718 0.2990350084316718 0.296911448051248 0.296911448051248 0.296911448051248 0.296911448051248 
0.2902135883460483 0.2902135883460483 0.2902135883460483 0.2902135883460483 0.2790147702224511 0.2790147702224511 0.2790147702224511 0.2790147702224511 0.2634525439203034 
0.2634525439203034 0.2634525439203034 0.2634525439203034 0.2437424104243849 0.2437424104243849 0.2437424104243849 0.2437424104243849 0.220166815529234 0.220166815529234 
0.220166815529234 0.220166815529234 0.1930805011285457 0.1930805011285457 0.1930805011285457 0.1930805011285457 0.1629268360538781 0.1629268360538781 0.1629268360538781 
0.1629268360538781 0.1302152389504321 0.1302152389504321 0.1302152389504321 0.1302152389504321 0.09547309924752531 0.09547309924752531 0.09547309924752531 0.09547309924752531 
0.0592267726582055 0.0592267726582055 0.0592267726582055 0.0592267726582055 0.02202586975465851 0.02202586975465851 0.02202586975465851 0.02202586975465851 -0.01553442805076337 
-0.01553442805076337 -0.01553442805076337 -0.01553442805076337 -0.05283487117730141 -0.05283487117730141 -0.05283487117730141 -0.05283487117730141 -0.08927510822515856 -0.08927510822515856 
-0.08927510822515856 -0.08927510822515856 -0.1242943812377895 -0.1242943812377895 -0.1242943812377895 -0.1242943812377895 -0.157362873624469 -0.157362873624469 -0.157362873624469 
-0.157362873624469 -0.1879692327518955 -0.1879692327518955 -0.1879692327518955 -0.1879692327518955 -0.215625003140886 -0.215625003140886 -0.215625003140886 -0.215625003140886 
-0.239884446966384 -0.239884446966384 -0.239884446966384 -0.239884446966384 -0.2603549347666839 -0.2603549347666839 -0.2603549347666839 -0.2603549347666839 -0.276729197549212 
-0.276729197549212 -0.276729197549212 -0.276729197549212 -0.2886840013011007 -0.2886840013011007 -0.2886840013011007 -0.2886840013011007 -0.2962758895679842 -0.2962758895679842 
-0.2962758895679842 -0.2962758895679842 -0.2984387875492674 -0.2984387875492674 -0.2984387875492674 -0.2984387875492674 -0.298726866311412 -0.298726866311412 -0.298726866311412 
-0.298726866311412 -0.2838775932293904 -0.2838775932293904 -0.2838775932293904 -0.2838775932293904 -0.1656936844046396 -0.1656936844046396 -0.1656936844046396 -0.1656936844046396 
-0.159201480119201 -0.159201480119201 -0.159201480119201 -0.159201480119201 -0.1478672387008972 -0.1478672387008972 -0.1478672387008972 -0.1478672387008972 -0.133756066445451 
-0.133756066445451 -0.133756066445451 -0.133756066445451 -0.1175619435511666 -0.1175619435511666 -0.1175619435511666 -0.1175619435511666 -0.09966783446033148 -0.09966783446033148 
-0.09966783446033148 -0.09966783446033148 -0.08036912529035595 -0.08036912529035595 -0.08036912529035595 -0.08036912529035595 -0.05991235907927003 -0.05991235907927003 -0.05991235907927003 
-0.05991235907927003 -0.03851309421019053 -0.03851309421019053 -0.03851309421019053 -0.03851309421019053 -0.01638590147711103 -0.01638590147711103 -0.01638590147711103 -0.01638590147711103 
0.006224522091963583 0.006224522091963583 0.006224522091963583 0.006224522091963583 0.0290265166449221 0.0290265166449221 0.0290265166449221 0.0290265166449221 0.05167846378018762 
0.05167846378018762 0.05167846378018762 0.05167846378018762 0.07379010273496046 0.07379010273496046 0.07379010273496046 0.07379010273496046 0.09492666492841689 0.09492666492841689 
0.09492666492841689 0.09492666492841689 0.1146257371899708 0.1146257371899708 0.1146257371899708 0.1146257371899708 0.1324341091279333 0.1324341091279333 0.1324341091279333 
0.1324341091279333 0.1479564350035862 0.1479564350035862 0.1479564350035862 0.1479564350035862 0.1608952731454074 0.1608952731454074 0.1608952731454074 0.1608952731454074 
0.1710641350743102 0.1710641350743102 0.1710641350743102 0.1710641350743102 0.1783715996033223 0.1783715996033223 0.1783715996033223 0.1783715996033223 0.1827913635583915 
0.1827913635583915 0.1827913635583915 0.1827913635583915 0.1843359881320176 0.1843359881320176 0.1843359881320176 0.1843359881320176 0.1830343542376179 0.1830343542376179 
0.1830343542376179 0.1830343542376179 0.1789178452698481 0.1789178452698481 0.1789178452698481 0.1789178452698481 0.1720303129548609 0.1720303129548609 0.1720303129548609 
0.1720303129548609 0.1624543244215101 0.1624543244215101 0.1624543244215101 0.1624543244215101 0.150320186263145 0.150320186263145 0.150320186263145 0.150320186263145 
0.1357936242901197 0.1357936242901197 0.1357936242901197 0.1357936242901197 0.1190899841214621 0.1190899841214621 0.1190899841214621 0.1190899841214621 0.1004988349261273 
0.1004988349261273 0.1004988349261273 0.1004988349261273 0.08035394787485738 0.08035394787485738 0.08035394787485738 0.08035394787485738 0.0589706616404272 0.0589706616404272 
0.0589706616404272 0.0589706616404272 0.03663632203901655 0.03663632203901655 0.03663632203901655 0.03663632203901655 0.01366998924914059 0.01366998924914059 0.01366998924914059 
0.01366998924914059 -0.009536363882832877 -0.009536363882832877 -0.009536363882832877 -0.009536363882832877 -0.03255690540207712 -0.03255690540207712 -0.03255690540207712 -0.03255690540207712 
-0.05500239657641208 -0.05500239657641208 -0.05500239657641208 -0.05500239657641208 -0.07654609512803275 -0.07654609512803275 -0.07654609512803275 -0.07654609512803275 -0.09689428766455922 
-0.09689428766455922 -0.09689428766455922 -0.09689428766455922 -0.1157501009614791 -0.1157501009614791 -0.1157501009614791 -0.1157501009614791 -0.1328096560443139 -0.1328096560443139 
-0.1328096560443139 -0.1328096560443139 -0.1477855893196245 -0.1477855893196245 -0.1477855893196245 -0.1477855893196245 -0.1604260911447067 -0.1604260911447067 -0.1604260911447067 
-0.1604260911447067 -0.1705374284477382 -0.1705374284477382 -0.1705374284477382 -0.1705374284477382 -0.1779227582651169 -0.1779227582651169 -0.1779227582651169 -0.1779227582651169 
-0.1826131146182092 -0.1826131146182092 -0.1826131146182092 -0.1826131146182092 -0.1839632729448159 -0.1839632729448159 -0.1839632729448159 -0.1839632729448159 -0.1841821531228923 
-0.1841821531228923 -0.1841821531228923 -0.1841821531228923 -0.175023492641679 -0.175023492641679 -0.175023492641679 -0.175023492641679 -0.05866505365602854 -0.05866505365602854 
-0.05866505365602854 -0.05866505365602854 -0.05641088802300558 -0.05641088802300558 -0.05641088802300558 -0.05641088802300558 -0.05245688294159628 -0.05245688294159628 -0.05245688294159628 
-0.05245688294159628 -0.04747845486250474 -0.04747845486250474 -0.04747845486250474 -0.04747845486250474 -0.0417186355504535 -0.0417186355504535 -0.0417186355504535 -0.0417186355504535 
-0.03534320467440794 -0.03534320467440794 -0.03534320467440794 -0.03534320467440794 -0.0284872459332951 -0.0284872459332951 -0.0284872459332951 -0.0284872459332951 -0.02125013688190568 
-0.02125013688190568 -0.02125013688190568 -0.02125013688190568 -0.01370162120112963 -0.01370162120112963 -0.01370162120112963 -0.01370162120112963 -0.005906638713290551 -0.005906638713290551 
-0.005906638713290551 -0.005906638713290551 0.002051449478127797 0.002051449478127797 0.002051449478127797 0.002051449478127797 0.01006707988457319 0.01006707988457319 0.01006707988457319 
0.01006707988457319 0.01802304004115821 0.01802304004115821 0.01802304004115821 0.01802304004115821 0.02579668401918674 0.02579668401918674 0.02579668401918674 0.02579668401918674 
0.03325381364403421 0.03325381364403421 0.03325381364403421 0.03325381364403421 0.04024102141570314 0.04024102141570314 0.04024102141570314 0.04024102141570314 0.04659155650497111 
0.04659155650497111 0.04659155650497111 0.04659155650497111 0.05214711144971375 0.05214711144971375 0.05214711144971375 0.05214711144971375 0.05678314708135349 0.05678314708135349 
0.05678314708135349 0.05678314708135349 0.06042233954046178 0.06042233954046178 0.06042233954046178 0.06042233954046178 0.06303103718646957 0.06303103718646957 0.06303103718646957 
0.06303103718646957 0.06460622097958341 0.06460622097958341 0.06460622097958341 0.06460622097958341 0.06516164910928182 0.06516164910928182 0.06516164910928182 0.06516164910928182 
0.06471538270300198 0.06471538270300198 0.06471538270300198 0.06471538270300198 0.06328126981590143 0.06328126981590143 0.06328126981590143 0.06328126981590143 0.06087166148689784 
0.06087166148689784 0.06087166148689784 0.06087166148689784 0.05751324861422605 0.05751324861422605 0.05751324861422605 0.05751324861422605 0.05324963254375986 0.05324963254375986 
0.05324963254375986 0.05324963254375986 0.04812875928259167 0.04812875928259167 0.04812875928259167 0.04812875928259167 0.04222193527790376 0.04222193527790376 0.04222193527790376 
0.04222193527790376 0.03565551036202838 0.03565551036202838 0.03565551036202838 0.03565551036202838 0.02857873490888501 0.02857873490888501 0.02857873490888501 0.02857873490888501 
0.02108816873358457 0.02108816873358457 0.02108816873358457 0.02108816873358457 0.01322324122715595 0.01322324122715595 0.01322324122715595 0.01322324122715595 0.005056840708423078 
0.005056840708423078 0.005056840708423078 0.005056840708423078 -0.003239710919427682 -0.003239710919427682 -0.003239710919427682 -0.003239710919427682 -0.01144281944160639 -0.01144281944160639 
-0.01144281944160639 -0.01144281944160639 -0.01937365253441508 -0.01937365253441508 -0.01937365253441508 -0.01937365253441508 -0.02693713926494576 -0.02693713926494576 -0.02693713926494576 
-0.02693713926494576 -0.03407882675171608 -0.03407882675171608 -0.03407882675171608 -0.03407882675171608 -0.04072612824365413 -0.04072612824365413 -0.04072612824365413 -0.04072612824365413 
-0.04677195817352819 -0.04677195817352819 -0.04677195817352819 -0.04677195817352819 -0.0520977508685293 -0.0520977508685293 -0.0520977508685293 -0.0520977508685293 -0.05659988961238299 
-0.05659988961238299 -0.05659988961238299 -0.05659988961238299 -0.0602032746978165 -0.0602032746978165 -0.0602032746978165 -0.0602032746978165 -0.06284102180178255 -0.06284102180178255 
-0.06284102180178255 -0.06284102180178255 -0.06451838214128688 -0.06451838214128688 -0.06451838214128688 -0.06451838214128688 -0.06502627570349888 -0.06502627570349888 -0.06502627570349888 
-0.06502627570349888 -0.06512899785938858 -0.06512899785938858 -0.06512899785938858 -0.06512899785938858 -0.06192908409794948 -0.06192908409794948 -0.06192908409794948 -0.06192908409794948 
0.04957418793251084 0.04957418793251084 0.04957418793251084 0.04957418793251084 0.04757677852401046 0.04757677852401046 0.04757677852401046 0.04757677852401046 0.04412528063864184 
0.04412528063864184 0.04412528063864184 0.04412528063864184 0.03987232767438376 0.03987232767438376 0.03987232767438376 0.03987232767438376 0.03502870957346092 0.03502870957346092 
0.03502870957346092 0.03502870957346092 0.02969044759052446 0.02969044759052446 0.02969044759052446 0.02969044759052446 0.02392028476809628 0.02392028476809628 0.02392028476809628 
0.02392028476809628 0.01777975288396044 0.01777975288396044 0.01777975288396044 0.01777975288396044 0.01133863319416749 0.01133863319416749 0.01133863319416749 0.01133863319416749 
0.004668151489514975 0.004668151489514975 0.004668151489514975 0.004668151489514975 -0.002163867635899915 -0.002163867635899915 -0.002163867635899915 -0.002163867635899915 -0.009080721602631408 
-0.009080721602631408 -0.009080721602631408 -0.009080721602631408 -0.01597495731992742 -0.01597495731992742 -0.01597495731992742 -0.01597495731992742 -0.02269957199685362 -0.02269957199685362 
-0.02269957199685362 -0.02269957199685362 -0.02908453922104073 -0.02908453922104073 -0.02908453922104073 -0.02908453922104073 -0.03496843125503524 -0.03496843125503524 -0.03496843125503524 
-0.03496843125503524 -0.04022406509822365 -0.04022406509822365 -0.04022406509822365 -0.04022406509822365 -0.04476542209253662 -0.04476542209253662 -0.04476542209253662 -0.04476542209253662 
-0.04853888505930458 -0.04853888505930458 -0.04853888505930458 -0.04853888505930458 -0.05151020485510966 -0.05151020485510966 -0.05151020485510966 -0.05151020485510966 -0.05365544822838565 
-0.05365544822838565 -0.05365544822838565 -0.05365544822838565 -0.05495647713561436 -0.05495647713561436 -0.05495647713561436 -0.05495647713561436 -0.05539975721374846 -0.05539975721374846 
-0.05539975721374846 -0.05539975721374846 -0.05497838173825024 -0.05497838173825024 -0.05497838173825024 -0.05497838173825024 -0.05369729629499255 -0.05369729629499255 -0.05369729629499255 
-0.05369729629499255 -0.05157645210576613 -0.05157645210576613 -0.05157645210576613 -0.05157645210576613 -0.04864540557739967 -0.04864540557739967 -0.04864540557739967 -0.04864540557739967 
-0.04494647581752727 -0.04494647581752727 -0.04494647581752727 -0.04494647581752727 -0.04054813236717937 -0.04054813236717937 -0.04054813236717937 -0.04054813236717937 -0.03552674865172863 
-0.03552674865172863 -0.03552674865172863 -0.03552674865172863 -0.02992909843307016 -0.02992909843307016 -0.02992909843307016 -0.02992909843307016 -0.0237957331918111 -0.0237957331918111 
-0.0237957331918111 -0.0237957331918111 -0.01723844560391766 -0.01723844560391766 -0.01723844560391766 -0.01723844560391766 -0.01045060280272606 -0.01045060280272606 -0.01045060280272606 
-0.01045060280272606 -0.003609373746541623 -0.003609373746541623 -0.003609373746541623 -0.003609373746541623 0.0032108401194632 0.0032108401194632 0.0032108401194632 0.0032108401194632 
0.01000601613698536 0.01000601613698536 0.01000601613698536 0.01000601613698536 0.01673798462355616 0.01673798462355616 0.01673798462355616 0.01673798462355616 0.02328269429589198 
0.02328269429589198 0.02328269429589198 0.02328269429589198 0.02947138281654196 0.02947138281654196 0.02947138281654196 0.02947138281654196 0.03515884269531726 0.03515884269531726 
0.03515884269531726 0.03515884269531726 0.04025141379436626 0.04025141379436626 0.04025141379436626 0.04025141379436626 0.04469057321457096 0.04469057321457096 0.04469057321457096 
0.04469057321457096 0.04842486686766482 0.04842486686766482 0.04842486686766482 0.04842486686766482 0.05140710344495681 0.05140710344495681 0.05140710344495681 0.05140710344495681 
0.05357267263808541 0.05357267263808541 0.05357267263808541 0.05357267263808541 0.05494487985953002 0.05494487985953002 0.05494487985953002 0.05494487985953002 0.05528240563246878 
0.05528240563246878 0.05528240563246878 0.05528240563246878 0.05532604372368714 0.05532604372368714 0.05532604372368714 0.05532604372368714 0.05247832787505229 0.05247832787505229 
0.05247832787505229 0.05247832787505229 0.1570721255763922 0.1570721255763922 0.1570721255763922 0.1570721255763922 0.1508488392124471 0.1508488392124471 0.1508488392124471 
0.1508488392124471 0.1400693947403741 0.1400693947403741 0.1400693947403741 0.1400693947403741 0.1266851448957786 0.1266851448957786 0.1266851448957786 0.1266851448957786 
0.1113237809368386 0.1113237809368386 0.1113237809368386 0.1113237809368386 0.09433175513772674 0.09433175513772674 0.09433175513772674 0.09433175513772674 0.0759819265245274 
0.0759819265245274 0.0759819265245274 0.0759819265245274 0.05651558877425908 0.05651558877425908 0.05651558877425908 0.05651558877425908 0.03615482888718599 0.03615482888718599 
0.03615482888718599 0.03615482888718599 0.01511068921186047 0.01511068921186047 0.01511068921186047 0.01511068921186047 -0.006400408592917876 -0.006400408592917876 -0.006400408592917876 
-0.006400408592917876 -0.02812547672585607 -0.02812547672585607 -0.02812547672585607 -0.02812547672585607 -0.04974083074197956 -0.04974083074197956 -0.04974083074197956 -0.04974083074197956 
-0.07083969196176533 -0.07083969196176533 -0.07083969196176533 -0.07083969196176533 -0.09095673195025816 -0.09095673195025816 -0.09095673195025816 -0.09095673195025816 -0.1096208998927581 
-0.1096208998927581 -0.1096208998927581 -0.1096208998927581 -0.1264114761297156 -0.1264114761297156 -0.1264114761297156 -0.1264114761297156 -0.1409950288216681 -0.1409950288216681 
-0.1409950288216681 -0.1409950288216681 -0.153135733304218 -0.153135733304218 -0.153135733304218 -0.153135733304218 -0.1626848651051985 -0.1626848651051985 -0.1626848651051985 
-0.1626848651051985 -0.1695599785355894 -0.1695599785355894 -0.1695599785355894 -0.1695599785355894 -0.1737222939452883 -0.1737222939452883 -0.1737222939452883 -0.1737222939452883 
-0.1751590682778093 -0.1751590682778093 -0.1751590682778093 -0.1751590682778093 -0.1738750905035152 -0.1738750905035152 -0.1738750905035152 -0.1738750905035152 -0.1698950478070054 
-0.1698950478070054 -0.1698950478070054 -0.1698950478070054 -0.16327210649065 -0.16327210649065 -0.16327210649065 -0.16327210649065 -0.1540923954258689 -0.1540923954258689 
-0.1540923954258689 -0.1540923954258689 -0.1424831573774731 -0.1424831573774731 -0.1424831573774731 -0.1424831573774731 -0.128627248678073 -0.128627248678073 -0.128627248678073 
-0.128627248678073 -0.1127498976435587 -0.1127498976435587 -0.1127498976435587 -0.1127498976435587 -0.0950791736847368 -0.0950791736847368 -0.0950791736847368 -0.0950791736847368 
-0.07585081182176809 -0.07585081182176809 -0.07585081182176809 -0.07585081182176809 -0.05537114967846772 -0.05537114967846772 -0.05537114967846772 -0.05537114967846772 -0.03403872027665786 
-0.03403872027665786 -0.03403872027665786 -0.03403872027665786 -0.0122653804413484 -0.0122653804413484 -0.0122653804413484 -0.0122653804413484 0.009615850584808164 0.009615850584808164 
0.009615850584808164 0.009615850584808164 0.03134462343814953 0.03134462343814953 0.03134462343814953 0.03134462343814953 0.05264886880166292 0.05264886880166292 0.05264886880166292 
0.05264886880166292 0.07319187167714375 0.07319187167714375 0.07319187167714375 0.07319187167714375 0.09260013087301083 0.09260013087301083 0.09260013087301083 0.09260013087301083 
0.1105254094112732 0.1105254094112732 0.1105254094112732 0.1105254094112732 0.1266775691317802 0.1266775691317802 0.1266775691317802 0.1266775691317802 0.1408182132176933 
0.1408182132176933 0.1408182132176933 0.1408182132176933 0.1527372499371608 0.1527372499371608 0.1527372499371608 0.1527372499371608 0.162263729106752 0.162263729106752 
0.162263729106752 0.162263729106752 0.169202027688628 0.169202027688628 0.169202027688628 0.169202027688628 0.1736062628012168 0.1736062628012168 0.1736062628012168 
0.1736062628012168 0.1747786914654667 0.1747786914654667 0.1747786914654667 0.1747786914654667 0.1749803648842494 0.1749803648842494 0.1749803648842494 0.1749803648842494 
0.1661221383186528 0.1661221383186528 0.1661221383186528 0.1661221383186528 0.2620892087169883 0.2620892087169883 0.2620892087169883 0.2620892087169883 0.2517297251032669 
0.2517297251032669 0.2517297251032669 0.2517297251032669 0.2337917608518564 0.2337917608518564 0.2337917608518564 0.2337917608518564 0.2115066410289792 0.2115066410289792 
0.2115066410289792 0.2115066410289792 0.1858981992733851 0.1858981992733851 0.1858981992733851 0.1858981992733851 0.157538421693881 0.157538421693881 0.157538421693881 
0.157538421693881 0.1268947131058583 0.1268947131058583 0.1268947131058583 0.1268947131058583 0.09438613694870265 0.09438613694870265 0.09438613694870265 0.09438613694870265 
0.06039381241762557 0.06039381241762557 0.06039381241762557 0.06039381241762557 0.02527719678595486 0.02527719678595486 0.02527719678595486 0.02527719678595486 -0.01059285881089951 
-0.01059285881089951 -0.01059285881089951 -0.01059285881089951 -0.0467864894417569 -0.0467864894417569 -0.0467864894417569 -0.0467864894417569 -0.08276961018471266 -0.08276961018471266 
-0.08276961018471266 -0.08276961018471266 -0.1178875365483283 -0.1178875365483283 -0.1178875365483283 -0.1178875365483283 -0.1513949153505239 -0.1513949153505239 -0.1513949153505239 
-0.1513949153505239 -0.1825256470649301 -0.1825256470649301 -0.1825256470649301 -0.1825256470649301 -0.2105759797243746 -0.2105759797243746 -0.2105759797243746 -0.2105759797243746 
-0.2349703903493882 -0.2349703903493882 -0.2349703903493882 -0.2349703903493882 -0.2552920353502125 -0.2552920353502125 -0.2552920353502125 -0.2552920353502125 -0.2712767990680282 