Title = Result/Post/Linear_Advection_2D/FVM/MLP_u1_Least_Square/Sine_Wave_2D/Quad50/
FileType = Solution
Variables = q
Zone T = Result/Post/Linear_Advection_2D/FVM/MLP_u1_Least_Square/Sine_Wave_2D/Quad50/
ZoneType = FETriangle
Nodes = 10000
Elements = 5000
DataPacking = Block
StrandID = 17
SolutionTime = 1.6
0.4607986106241733 0.4607986106241733 0.4607986106241733 0.4607986106241733 0.3978220574771168 0.3978220574771168 0.3978220574771168 0.3978220574771168 0.3008595793426587 0.3008595793426587 
0.3008595793426587 0.3008595793426587 0.1887972155766268 0.1887972155766268 0.1887972155766268 0.1887972155766268 0.06927774582407964 0.06927774582407964 0.06927774582407964 
0.06927774582407964 -0.05058111796608161 -0.05058111796608161 -0.05058111796608161 -0.05058111796608161 -0.1665527064153194 -0.1665527064153194 -0.1665527064153194 -0.1665527064153194 
-0.277512195042403 -0.277512195042403 -0.277512195042403 -0.277512195042403 -0.384391102901045 -0.384391102901045 -0.384391102901045 -0.384391102901045 -0.486597853075672 
-0.486597853075672 -0.486597853075672 -0.486597853075672 -0.5820402423385952 -0.5820402423385952 -0.5820402423385952 -0.5820402423385952 -0.6684691846240054 -0.6684691846240054 
-0.6684691846240054 -0.6684691846240054 -0.7441486720201782 -0.7441486720201782 -0.7441486720201782 -0.7441486720201782 -0.8079720536155353 -0.8079720536155353 -0.8079720536155353 
-0.8079720536155353 -0.859031973311399 -0.859031973311399 -0.859031973311399 -0.859031973311399 -0.8965580450851192 -0.8965580450851192 -0.8965580450851192 -0.8965580450851192 
-0.9199481584901573 -0.9199481584901573 -0.9199481584901573 -0.9199481584901573 -0.9288044588202627 -0.9288044588202627 -0.9288044588202627 -0.9288044588202627 -0.9230502959021486 
-0.9230502959021486 -0.9230502959021486 -0.9230502959021486 -0.9027768044010239 -0.9027768044010239 -0.9027768044010239 -0.9027768044010239 -0.8683407035849006 -0.8683407035849006 
-0.8683407035849006 -0.8683407035849006 -0.8203549952553235 -0.8203549952553235 -0.8203549952553235 -0.8203549952553235 -0.7596857545949245 -0.7596857545949245 -0.7596857545949245 
-0.7596857545949245 -0.68741546553122 -0.68741546553122 -0.68741546553122 -0.68741546553122 -0.6047980016949327 -0.6047980016949327 -0.6047980016949327 -0.6047980016949327 
-0.5131913926311462 -0.5131913926311462 -0.5131913926311462 -0.5131913926311462 -0.4139878646855202 -0.4139878646855202 -0.4139878646855202 -0.4139878646855202 -0.3085589653046081 
-0.3085589653046081 -0.3085589653046081 -0.3085589653046081 -0.19823458527659 -0.19823458527659 -0.19823458527659 -0.19823458527659 -0.08432733359281067 -0.08432733359281067 
-0.08432733359281067 -0.08432733359281067 0.03180134655541657 0.03180134655541657 0.03180134655541657 0.03180134655541657 0.1486537504931016 0.1486537504931016 0.1486537504931016 
0.1486537504931016 0.2645204664742288 0.2645204664742288 0.2645204664742288 0.2645204664742288 0.3774518734235156 0.3774518734235156 0.3774518734235156 0.3774518734235156 
0.4853001188146969 0.4853001188146969 0.4853001188146969 0.4853001188146969 0.5858328295201911 0.5858328295201911 0.5858328295201911 0.5858328295201911 0.6768953530826286 
0.6768953530826286 0.6768953530826286 0.6768953530826286 0.7565801318760714 0.7565801318760714 0.7565801318760714 0.7565801318760714 0.823357606743235 0.823357606743235 
0.823357606743235 0.823357606743235 0.8761396718878977 0.8761396718878977 0.8761396718878977 0.8761396718878977 0.9142696666214214 0.9142696666214214 0.9142696666214214 
0.9142696666214214 0.9374510955273607 0.9374510955273607 0.9374510955273607 0.9374510955273607 0.9456360210497659 0.9456360210497659 0.9456360210497659 0.9456360210497659 
0.9390103826107608 0.9390103826107608 0.9390103826107608 0.9390103826107608 0.9178790794934351 0.9178790794934351 0.9178790794934351 0.9178790794934351 0.8822804868089409 
0.8822804868089409 0.8822804868089409 0.8822804868089409 0.8340829901479598 0.8340829901479598 0.8340829901479598 0.8340829901479598 0.7682508429005767 0.7682508429005767 
0.7682508429005767 0.7682508429005767 0.7093155650885254 0.7093155650885254 0.7093155650885254 0.7093155650885254 0.5618696853992433 0.5618696853992433 0.5618696853992433 
0.5618696853992433 0.466085895768649 0.466085895768649 0.466085895768649 0.466085895768649 0.403535200564241 0.403535200564241 0.403535200564241 0.403535200564241 
0.3064145965685969 0.3064145965685969 0.3064145965685969 0.3064145965685969 0.1922600314850735 0.1922600314850735 0.1922600314850735 0.1922600314850735 0.06940611351871724 
0.06940611351871724 0.06940611351871724 0.06940611351871724 -0.05367234594818565 -0.05367234594818565 -0.05367234594818565 -0.05367234594818565 -0.1709932248714464 -0.1709932248714464 
-0.1709932248714464 -0.1709932248714464 -0.2819728936079511 -0.2819728936079511 -0.2819728936079511 -0.2819728936079511 -0.3888789191638459 -0.3888789191638459 -0.3888789191638459 
-0.3888789191638459 -0.4916123126116109 -0.4916123126116109 -0.4916123126116109 -0.4916123126116109 -0.588002339177732 -0.588002339177732 -0.588002339177732 -0.588002339177732 
-0.6753990436997093 -0.6753990436997093 -0.6753990436997093 -0.6753990436997093 -0.7519097335614398 -0.7519097335614398 -0.7519097335614398 -0.7519097335614398 -0.8164066185193879 
-0.8164066185193879 -0.8164066185193879 -0.8164066185193879 -0.8679939931376471 -0.8679939931376471 -0.8679939931376471 -0.8679939931376471 -0.90591151029955 -0.90591151029955 
-0.90591151029955 -0.90591151029955 -0.9295444876807735 -0.9295444876807735 -0.9295444876807735 -0.9295444876807735 -0.938487421157047 -0.938487421157047 -0.938487421157047 
-0.938487421157047 -0.9326782512201183 -0.9326782512201183 -0.9326782512201183 -0.9326782512201183 -0.9122022209217693 -0.9122022209217693 -0.9122022209217693 -0.9122022209217693 
-0.8774166466032126 -0.8774166466032126 -0.8774166466032126 -0.8774166466032126 -0.8289366915506229 -0.8289366915506229 -0.8289366915506229 -0.8289366915506229 -0.7676378851149965 
-0.7676378851149965 -0.7676378851149965 -0.7676378851149965 -0.6946142557740689 -0.6946142557740689 -0.6946142557740689 -0.6946142557740689 -0.6111337096584593 -0.6111337096584593 
-0.6111337096584593 -0.6111337096584593 -0.5185696287199513 -0.5185696287199513 -0.5185696287199513 -0.5185696287199513 -0.4183298703236182 -0.4183298703236182 -0.4183298703236182 
-0.4183298703236182 -0.3118010419744722 -0.3118010419744722 -0.3118010419744722 -0.3118010419744722 -0.2003272817111194 -0.2003272817111194 -0.2003272817111194 -0.2003272817111194 
-0.0852347545359779 -0.0852347545359779 -0.0852347545359779 -0.0852347545359779 0.03210159850054865 0.03210159850054865 0.03210159850054865 0.03210159850054865 0.1501696358223163 
0.1501696358223163 0.1501696358223163 0.1501696358223163 0.2672434839179251 0.2672434839179251 0.2672434839179251 0.2672434839179251 0.3813542966760677 0.3813542966760677 
0.3813542966760677 0.3813542966760677 0.4903322480256572 0.4903322480256572 0.4903322480256572 0.4903322480256572 0.5919212723196472 0.5919212723196472 0.5919212723196472 
0.5919212723196472 0.6839431869775782 0.6839431869775782 0.6839431869775782 0.6839431869775782 0.7644689410235941 0.7644689410235941 0.7644689410235941 0.7644689410235941 
0.8319509116344239 0.8319509116344239 0.8319509116344239 0.8319509116344239 0.8852877850144494 0.8852877850144494 0.8852877850144494 0.8852877850144494 0.9238157804869398 
0.9238157804869398 0.9238157804869398 0.9238157804869398 0.9472355735969973 0.9472355735969973 0.9472355735969973 0.9472355735969973 0.9554979317725447 0.9554979317725447 
0.9554979317725447 0.9554979317725447 0.9488043222719412 0.9488043222719412 0.9488043222719412 0.9488043222719412 0.9274605257694137 0.9274605257694137 0.9274605257694137 
0.9274605257694137 0.8914987189446986 0.8914987189446986 0.8914987189446986 0.8914987189446986 0.8428078580784334 0.8428078580784334 0.8428078580784334 0.8428078580784334 
0.7762943843323763 0.7762943843323763 0.7762943843323763 0.7762943843323763 0.7166634572054746 0.7166634572054746 0.7166634572054746 0.7166634572054746 0.5680970225085482 
0.5680970225085482 0.5680970225085482 0.5680970225085482 0.4690984635338012 0.4690984635338012 0.4690984635338012 0.4690984635338012 0.4062891030534658 0.4062891030534658 
0.4062891030534658 0.4062891030534658 0.3089479508639345 0.3089479508639345 0.3089479508639345 0.3089479508639345 0.1950645352390602 0.1950645352390602 0.1950645352390602 
0.1950645352390602 0.07105831935579213 0.07105831935579213 0.07105831935579213 0.07105831935579213 -0.05406549038957651 -0.05406549038957651 -0.05406549038957651 -0.05406549038957651 
-0.1725455772607301 -0.1725455772607301 -0.1725455772607301 -0.1725455772607301 -0.2840276849956219 -0.2840276849956219 -0.2840276849956219 -0.2840276849956219 -0.3910377499491651 
-0.3910377499491651 -0.3910377499491651 -0.3910377499491651 -0.4939460268787462 -0.4939460268787462 -0.4939460268787462 -0.4939460268787462 -0.5907505684384404 -0.5907505684384404 
-0.5907505684384404 -0.5907505684384404 -0.6785867599150646 -0.6785867599150646 -0.6785867599150646 -0.6785867599150646 -0.7555027904281293 -0.7555027904281293 -0.7555027904281293 
-0.7555027904281293 -0.820322957112418 -0.820322957112418 -0.820322957112418 -0.820322957112418 -0.8721647455535297 -0.8721647455535297 -0.8721647455535297 -0.8721647455535297 
-0.910270414563017 -0.910270414563017 -0.910270414563017 -0.910270414563017 -0.9340151850494649 -0.9340151850494649 -0.9340151850494649 -0.9340151850494649 -0.9429924211969879 
-0.9429924211969879 -0.9429924211969879 -0.9429924211969879 -0.9371689847297764 -0.9371689847297764 -0.9371689847297764 -0.9371689847297764 -0.9166102390034047 -0.9166102390034047 
-0.9166102390034047 -0.9166102390034047 -0.8816682029683589 -0.8816682029683589 -0.8816682029683589 -0.8816682029683589 -0.8329633764271567 -0.8329633764271567 -0.8329633764271567 
-0.8329633764271567 -0.7713744625054862 -0.7713744625054862 -0.7713744625054862 -0.7713744625054862 -0.6980007366063727 -0.6980007366063727 -0.6980007366063727 -0.6980007366063727 
-0.614117149487093 -0.614117149487093 -0.614117149487093 -0.614117149487093 -0.5211050272784518 -0.5211050272784518 -0.5211050272784518 -0.5211050272784518 -0.4203803144155305 
-0.4203803144155305 -0.4203803144155305 -0.4203803144155305 -0.3133372658746615 -0.3133372658746615 -0.3133372658746615 -0.3133372658746615 -0.2013271211473771 -0.2013271211473771 
-0.2013271211473771 -0.2013271211473771 -0.08568254950378536 -0.08568254950378536 -0.08568254950378536 -0.08568254950378536 0.03221540205254587 0.03221540205254587 0.03221540205254587 
0.03221540205254587 0.1508484587840088 0.1508484587840088 0.1508484587840088 0.1508484587840088 0.2684839662056123 0.2684839662056123 0.2684839662056123 0.2684839662056123 
0.3831450428490691 0.3831450428490691 0.3831450428490691 0.3831450428490691 0.4926522519663917 0.4926522519663917 0.4926522519663917 0.4926522519663917 0.5947386172826762 
0.5947386172826762 0.5947386172826762 0.5947386172826762 0.6872145350032401 0.6872145350032401 0.6872145350032401 0.6872145350032401 0.7681398336366839 0.7681398336366839 
0.7681398336366839 0.7681398336366839 0.8359569586341336 0.8359569586341336 0.8359569586341336 0.8359569586341336 0.889556775961851 0.889556775961851 0.889556775961851 
0.889556775961851 0.9282717685512782 0.9282717685512782 0.9282717685512782 0.9282717685512782 0.9517977968179165 0.9517977968179165 0.9517977968179165 0.9517977968179165 
0.9600849662118175 0.9600849662118175 0.9600849662118175 0.9600849662118175 0.9533711773102103 0.9533711773102103 0.9533711773102103 0.9533711773102103 0.9319375443235139 
0.9319375443235139 0.9319375443235139 0.9319375443235139 0.8958132334586439 0.8958132334586439 0.8958132334586439 0.8958132334586439 0.8468969282800507 0.8468969282800507 
0.8468969282800507 0.8468969282800507 0.780074972248921 0.780074972248921 0.780074972248921 0.780074972248921 0.7201290004332935 0.7201290004332935 0.7201290004332935 
0.7201290004332935 0.5710887382505844 0.5710887382505844 0.5710887382505844 0.5710887382505844 0.4648901640624031 0.4648901640624031 0.4648901640624031 0.4648901640624031 
0.4016437983667947 0.4016437983667947 0.4016437983667947 0.4016437983667947 0.3046230768671823 0.3046230768671823 0.3046230768671823 0.3046230768671823 0.1931372476761048 
0.1931372476761048 0.1931372476761048 0.1931372476761048 0.07216871496079591 0.07216871496079591 0.07216871496079591 0.07216871496079591 -0.05061518228204152 -0.05061518228204152 
-0.05061518228204152 -0.05061518228204152 -0.1685295409177383 -0.1685295409177383 -0.1685295409177383 -0.1685295409177383 -0.2803362487173445 -0.2803362487173445 -0.2803362487173445 
-0.2803362487173445 -0.3872966017943733 -0.3872966017943733 -0.3872966017943733 -0.3872966017943733 -0.4898227940751586 -0.4898227940751586 -0.4898227940751586 -0.4898227940751586 
-0.5859517883438744 -0.5859517883438744 -0.5859517883438744 -0.5859517883438744 -0.6730636306406665 -0.6730636306406665 -0.6730636306406665 -0.6730636306406665 -0.7493580308439116 
-0.7493580308439116 -0.7493580308439116 -0.7493580308439116 -0.8136554221143532 -0.8136554221143532 -0.8136554221143532 -0.8136554221143532 -0.8650943939292068 -0.8650943939292068 
-0.8650943939292068 -0.8650943939292068 -0.9029055637821524 -0.9029055637821524 -0.9029055637821524 -0.9029055637821524 -0.9264714906779292 -0.9264714906779292 -0.9264714906779292 
-0.9264714906779292 -0.9354085216770407 -0.9354085216770407 -0.9354085216770407 -0.9354085216770407 -0.9296241399695201 -0.9296241399695201 -0.9296241399695201 -0.9296241399695201 
-0.9092317157466725 -0.9092317157466725 -0.9092317157466725 -0.9092317157466725 -0.8745760778820856 -0.8745760778820856 -0.8745760778820856 -0.8745760778820856 -0.8262714945175167 
-0.8262714945175167 -0.8262714945175167 -0.8262714945175167 -0.7651845822587362 -0.7651845822587362 -0.7651845822587362 -0.7651845822587362 -0.6924056424724934 -0.6924056424724934 
-0.6924056424724934 -0.6924056424724934 -0.6091995548087388 -0.6091995548087388 -0.6091995548087388 -0.6091995548087388 -0.5169373537085936 -0.5169373537085936 -0.5169373537085936 
-0.5169373537085936 -0.417024442576195 -0.417024442576195 -0.417024442576195 -0.417024442576195 -0.3108446708698908 -0.3108446708698908 -0.3108446708698908 -0.3108446708698908 
-0.1997390834450277 -0.1997390834450277 -0.1997390834450277 -0.1997390834450277 -0.08502997627790226 -0.08502997627790226 -0.08502997627790226 -0.08502997627790226 0.03191290032741335 
0.03191290032741335 0.03191290032741335 0.03191290032741335 0.1495843133563987 0.1495843133563987 0.1495843133563987 0.1495843133563987 0.2662668973520055 0.2662668973520055 
0.2662668973520055 0.2662668973520055 0.3800011896158706 0.3800011896158706 0.3800011896158706 0.3800011896158706 0.4886264633805104 0.4886264633805104 0.4886264633805104 
0.4886264633805104 0.5898944447390974 0.5898944447390974 0.5898944447390974 0.5898944447390974 0.6816327478934554 0.6816327478934554 0.6816327478934554 0.6816327478934554 
0.7619155561219474 0.7619155561219474 0.7619155561219474 0.7619155561219474 0.8291961066726652 0.8291961066726652 0.8291961066726652 0.8291961066726652 0.8823722573446308 
0.8823722573446308 0.8823722573446308 0.8823722573446308 0.9207812916820211 0.9207812916820211 0.9207812916820211 0.9207812916820211 0.9441228197403514 0.9441228197403514 
0.9441228197403514 0.9441228197403514 0.9523680257683118 0.9523680257683118 0.9523680257683118 0.9523680257683118 0.9456933936554597 0.9456933936554597 0.9456933936554597 
0.9456933936554597 0.924430205711231 0.924430205711231 0.924430205711231 0.924430205711231 0.8886012122146867 0.8886012122146867 0.8886012122146867 0.8886012122146867 
0.8400849217035813 0.8400849217035813 0.8400849217035813 0.8400849217035813 0.7738200482290317 0.7738200482290317 0.7738200482290317 0.7738200482290317 0.7143376714067952 
0.7143376714067952 0.7143376714067952 0.7143376714067952 0.5665156376112702 0.5665156376112702 0.5665156376112702 0.5665156376112702 0.4533927318007602 0.4533927318007602 
0.4533927318007602 0.4533927318007602 0.3905599510790808 0.3905599510790808 0.3905599510790808 0.3905599510790808 0.2945419078516483 0.2945419078516483 0.2945419078516483 
0.2945419078516483 0.1863194566028448 0.1863194566028448 0.1863194566028448 0.1863194566028448 0.07095280302251677 0.07095280302251677 0.07095280302251677 0.07095280302251677 
-0.04661195836084644 -0.04661195836084644 -0.04661195836084644 -0.04661195836084644 -0.1616401415294431 -0.1616401415294431 -0.1616401415294431 -0.1616401415294431 -0.2719585086264295 
-0.2719585086264295 -0.2719585086264295 -0.2719585086264295 -0.3777213157814842 -0.3777213157814842 -0.3777213157814842 -0.3777213157814842 -0.4785629991627146 -0.4785629991627146 
-0.4785629991627146 -0.4785629991627146 -0.5725482428517734 -0.5725482428517734 -0.5725482428517734 -0.5725482428517734 -0.6575897636071915 -0.6575897636071915 -0.6575897636071915 
-0.6575897636071915 -0.7320623395808541 -0.7320623395808541 -0.7320623395808541 -0.7320623395808541 -0.7948638705270237 -0.7948638705270237 -0.7948638705270237 -0.7948638705270237 
-0.845130400438596 -0.845130400438596 -0.845130400438596 -0.845130400438596 -0.8820833854053907 -0.8820833854053907 -0.8820833854053907 -0.8820833854053907 -0.9051244712526811 
-0.9051244712526811 -0.9051244712526811 -0.9051244712526811 -0.9138798643875576 -0.9138798643875576 -0.9138798643875576 -0.9138798643875576 -0.908235779578771 -0.908235779578771 
-0.908235779578771 -0.908235779578771 -0.8883112558212947 -0.8883112558212947 -0.8883112558212947 -0.8883112558212947 -0.8544557797653094 -0.8544557797653094 -0.8544557797653094 
-0.8544557797653094 -0.807267846949987 -0.807267846949987 -0.807267846949987 -0.807267846949987 -0.7475916692404287 -0.7475916692404287 -0.7475916692404287 -0.7475916692404287 
-0.676491894853594 -0.676491894853594 -0.676491894853594 -0.676491894853594 -0.5952039877977593 -0.5952039877977593 -0.5952039877977593 -0.5952039877977593 -0.5050676015731288 
-0.5050676015731288 -0.5050676015731288 -0.5050676015731288 -0.4074561954162335 -0.4074561954162335 -0.4074561954162335 -0.4074561954162335 -0.3037224418726067 -0.3037224418726067 
-0.3037224418726067 -0.3037224418726067 -0.1951772173818827 -0.1951772173818827 -0.1951772173818827 -0.1951772173818827 -0.08311284851481666 -0.08311284851481666 -0.08311284851481666 
-0.08311284851481666 0.03113246375208208 0.03113246375208208 0.03113246375208208 0.03113246375208208 0.1460887749129794 0.1460887749129794 0.1460887749129794 0.1460887749129794 
0.2600794492571986 0.2600794492571986 0.2600794492571986 0.2600794492571986 0.3711915956462247 0.3711915956462247 0.3711915956462247 0.3711915956462247 0.4773154905963977 
0.4773154905963977 0.4773154905963977 0.4773154905963977 0.5762552530083651 0.5762552530083651 0.5762552530083651 0.5762552530083651 0.6658883227271235 0.6658883227271235 
0.6658883227271235 0.6658883227271235 0.7443323564759853 0.7443323564759853 0.7443323564759853 0.7443323564759853 0.8100751339389984 0.8100751339389984 0.8100751339389984 
0.8100751339389984 0.8620385945130005 0.8620385945130005 0.8620385945130005 0.8620385945130005 0.8995735967252376 0.8995735967252376 0.8995735967252376 0.8995735967252376 
0.9223896133093878 0.9223896133093878 0.9223896133093878 0.9223896133093878 0.930463368031873 0.930463368031873 0.930463368031873 0.930463368031873 0.9239392040532857 
0.9239392040532857 0.9239392040532857 0.9239392040532857 0.9031576523586367 0.9031576523586367 0.9031576523586367 0.9031576523586367 0.8681536039096789 0.8681536039096789 
0.8681536039096789 0.8681536039096789 0.8207562004657023 0.8207562004657023 0.8207562004657023 0.8207562004657023 0.7560273103013504 0.7560273103013504 0.7560273103013504 
0.7560273103013504 0.6979161136033875 0.6979161136033875 0.6979161136033875 0.6979161136033875 0.5533646017129561 0.5533646017129561 0.5533646017129561 0.5533646017129561 
0.4353032948503295 0.4353032948503295 0.4353032948503295 0.4353032948503295 0.3744031391742078 0.3744031391742078 0.3744031391742078 0.3744031391742078 0.2811142128263555 
0.2811142128263555 0.2811142128263555 0.2811142128263555 0.1770854428179623 0.1770854428179623 0.1770854428179623 0.1770854428179623 0.06774233981216417 0.06774233981216417 
0.06774233981216417 0.06774233981216417 -0.0436066426812563 -0.0436066426812563 -0.0436066426812563 -0.0436066426812563 -0.1536081339233162 -0.1536081339233162 -0.1536081339233162 
-0.1536081339233162 -0.2602402451249856 -0.2602402451249856 -0.2602402451249856 -0.2602402451249856 -0.3627544481744347 -0.3627544481744347 -0.3627544481744347 -0.3627544481744347 
-0.4600108472385288 -0.4600108472385288 -0.4600108472385288 -0.4600108472385288 -0.5503262330508427 -0.5503262330508427 -0.5503262330508427 -0.5503262330508427 -0.6319375535222086 
-0.6319375535222086 -0.6319375535222086 -0.6319375535222086 -0.7034201724229511 -0.7034201724229511 -0.7034201724229511 -0.7034201724229511 -0.7637549801598339 -0.7637549801598339 
-0.7637549801598339 -0.7637549801598339 -0.8120590695367145 -0.8120590695367145 -0.8120590695367145 -0.8120590695367145 -0.847574734477453 -0.847574734477453 -0.847574734477453 
-0.847574734477453 -0.869725041538046 -0.869725041538046 -0.869725041538046 -0.869725041538046 -0.8781523815331813 -0.8781523815331813 -0.8781523815331813 -0.8781523815331813 
-0.8727395567932239 -0.8727395567932239 -0.8727395567932239 -0.8727395567932239 -0.853598062549485 -0.853598062549485 -0.853598062549485 -0.853598062549485 -0.8210686209128568 
-0.8210686209128568 -0.8210686209128568 -0.8210686209128568 -0.7757284260743462 -0.7757284260743462 -0.7757284260743462 -0.7757284260743462 -0.7183889949107225 -0.7183889949107225 
-0.7183889949107225 -0.7183889949107225 -0.6500726546856733 -0.6500726546856733 -0.6500726546856733 -0.6500726546856733 -0.5719659401338818 -0.5719659401338818 -0.5719659401338818 
-0.5719659401338818 -0.4853557685480743 -0.4853557685480743 -0.4853557685480743 -0.4853557685480743 -0.3915621557527434 -0.3915621557527434 -0.3915621557527434 -0.3915621557527434 
-0.291885610546162 -0.291885610546162 -0.291885610546162 -0.291885610546162 -0.1875865653604193 -0.1875865653604193 -0.1875865653604193 -0.1875865653604193 -0.07990734357040617 
-0.07990734357040617 -0.07990734357040617 -0.07990734357040617 0.0298661996710247 0.0298661996710247 0.0298661996710247 0.0298661996710247 0.1403222597308624 0.1403222597308624 
0.1403222597308624 0.1403222597308624 0.2498509725636159 0.2498509725636159 0.2498509725636159 0.2498509725636159 0.3566157179560097 0.3566157179560097 0.3566157179560097 
0.3566157179560097 0.4585905381514478 0.4585905381514478 0.4585905381514478 0.4585905381514478 0.5536660185131694 0.5536660185131694 0.5536660185131694 0.5536660185131694 
0.6398023129575358 0.6398023129575358 0.6398023129575358 0.6398023129575358 0.7151897968718194 0.7151897968718194 0.7151897968718194 0.7151897968718194 0.7783745270243335 
0.7783745270243335 0.7783745270243335 0.7783745270243335 0.8283198289758219 0.8283198289758219 0.8283198289758219 0.8283198289758219 0.8643999862229976 0.8643999862229976 
0.8643999862229976 0.8643999862229976 0.8863347046661924 0.8863347046661924 0.8863347046661924 0.8863347046661924 0.894104328190112 0.894104328190112 0.894104328190112 
0.894104328190112 0.8878393978299095 0.8878393978299095 0.8878393978299095 0.8878393978299095 0.8678677706867162 0.8678677706867162 0.8678677706867162 0.8678677706867162 
0.8342304406840098 0.8342304406840098 0.8342304406840098 0.8342304406840098 0.7886851389094367 0.7886851389094367 0.7886851389094367 0.7886851389094367 0.726492561504431 
0.726492561504431 0.726492561504431 0.726492561504431 0.6706646848172513 0.6706646848172513 0.6706646848172513 0.6706646848172513 0.5317146146961511 0.5317146146961511 
0.5317146146961511 0.5317146146961511 0.4107571196375222 0.4107571196375222 0.4107571196375222 0.4107571196375222 0.353255300961391 0.353255300961391 0.353255300961391 
0.353255300961391 0.2648791612472544 0.2648791612472544 0.2648791612472544 0.2648791612472544 0.166370297529923 0.166370297529923 0.166370297529923 0.166370297529923 
0.06339669022585386 0.06339669022585386 0.06339669022585386 0.06339669022585386 -0.04105706770786426 -0.04105706770786426 -0.04105706770786426 -0.04105706770786426 -0.144525447669224 
-0.144525447669224 -0.144525447669224 -0.144525447669224 -0.2453115024641659 -0.2453115024641659 -0.2453115024641659 -0.2453115024641659 -0.3422703202821489 -0.3422703202821489 
-0.3422703202821489 -0.3422703202821489 -0.4341363171179888 -0.4341363171179888 -0.4341363171179888 -0.4341363171179888 -0.5193309395211778 -0.5193309395211778 -0.5193309395211778 
-0.5193309395211778 -0.5962706646320496 -0.5962706646320496 -0.5962706646320496 -0.5962706646320496 -0.6637046721007523 -0.6637046721007523 -0.6637046721007523 -0.6637046721007523 
-0.7206400005377391 -0.7206400005377391 -0.7206400005377391 -0.7206400005377391 -0.7662218173168031 -0.7662218173168031 -0.7662218173168031 -0.7662218173168031 -0.7997362582182841 
-0.7997362582182841 -0.7997362582182841 -0.7997362582182841 -0.8206395351704369 -0.8206395351704369 -0.8206395351704369 -0.8206395351704369 -0.8285980103310304 -0.8285980103310304 
-0.8285980103310304 -0.8285980103310304 -0.8234974488889378 -0.8234974488889378 -0.8234974488889378 -0.8234974488889378 -0.8054404018554122 -0.8054404018554122 -0.8054404018554122 
-0.8054404018554122 -0.7747497211382003 -0.7747497211382003 -0.7747497211382003 -0.7747497211382003 -0.7319719074632079 -0.7319719074632079 -0.7319719074632079 -0.7319719074632079 
-0.6778730700594213 -0.6778730700594213 -0.6778730700594213 -0.6778730700594213 -0.613417057676505 -0.613417057676505 -0.613417057676505 -0.613417057676505 -0.5397223173229143 
-0.5397223173229143 -0.5397223173229143 -0.5397223173229143 -0.4580025798831592 -0.4580025798831592 -0.4580025798831592 -0.4580025798831592 -0.3695037277301479 -0.3695037277301479 
-0.3695037277301479 -0.3695037277301479 -0.2754538522899971 -0.2754538522899971 -0.2754538522899971 -0.2754538522899971 -0.177043298822868 -0.177043298822868 -0.177043298822868 
-0.177043298822868 -0.07544489718230121 -0.07544489718230121 -0.07544489718230121 -0.07544489718230121 0.02812814828993849 0.02812814828993849 0.02812814828993849 0.02812814828993849 
0.1323445306805335 0.1323445306805335 0.1323445306805335 0.1323445306805335 0.2356866298890969 0.2356866298890969 0.2356866298890969 0.2356866298890969 0.3364230886760696 
0.3364230886760696 0.3364230886760696 0.3364230886760696 0.4326436191813374 0.4326436191813374 0.4326436191813374 0.4326436191813374 0.5223583830556512 0.5223583830556512 
0.5223583830556512 0.5223583830556512 0.6036421150681266 0.6036421150681266 0.6036421150681266 0.6036421150681266 0.674786061884369 0.674786061884369 0.674786061884369 
0.674786061884369 0.73441720874372 0.73441720874372 0.73441720874372 0.73441720874372 0.7815568400240012 0.7815568400240012 0.7815568400240012 0.7815568400240012 
0.8156135391772874 0.8156135391772874 0.8156135391772874 0.8156135391772874 0.8363218290169709 0.8363218290169709 0.8363218290169709 0.8363218290169709 0.8436623395558236 
0.8436623395558236 0.8436623395558236 0.8436623395558236 0.8377558453974943 0.8377558453974943 0.8377558453974943 0.8377558453974943 0.8189112138208332 0.8189112138208332 
0.8189112138208332 0.8189112138208332 0.7871713692631058 0.7871713692631058 0.7871713692631058 0.7871713692631058 0.7441957194002802 0.7441957194002802 0.7441957194002802 
0.7441957194002802 0.6855195601259971 0.6855195601259971 0.6855195601259971 0.6855195601259971 0.6328489373030386 0.6328489373030386 0.6328489373030386 0.6328489373030386 
0.5017698941874539 0.5017698941874539 0.5017698941874539 0.5017698941874539 0.3798673544989414 0.3798673544989414 0.3798673544989414 0.3798673544989414 0.3269011119059504 
0.3269011119059504 0.3269011119059504 0.3269011119059504 0.2452434286190585 0.2452434286190585 0.2452434286190585 0.2452434286190585 0.1537283074348422 0.1537283074348422 
0.1537283074348422 0.1537283074348422 0.0580155030268039 0.0580155030268039 0.0580155030268039 0.0580155030268039 -0.03872960205624257 -0.03872960205624257 -0.03872960205624257 
-0.03872960205624257 -0.1342557063234675 -0.1342557063234675 -0.1342557063234675 -0.1342557063234675 -0.2271507261330125 -0.2271507261330125 -0.2271507261330125 -0.2271507261330125 
-0.3165483558932475 -0.3165483558932475 -0.3165483558932475 -0.3165483558932475 -0.4013281210024515 -0.4013281210024515 -0.4013281210024515 -0.4013281210024515 -0.4800023571545824 
-0.4800023571545824 -0.4800023571545824 -0.4800023571545824 -0.5511203044054196 -0.5511203044054196 -0.5511203044054196 -0.5511203044054196 -0.6134815669197953 -0.6134815669197953 
-0.6134815669197953 -0.6134815669197953 -0.6661310743990811 -0.6661310743990811 -0.6661310743990811 -0.6661310743990811 -0.7082758724206872 -0.7082758724206872 -0.7082758724206872 
-0.7082758724206872 -0.7392576993966786 -0.7392576993966786 -0.7392576993966786 -0.7392576993966786 -0.7585810557947383 -0.7585810557947383 -0.7585810557947383 -0.7585810557947383 
-0.7659405244241203 -0.7659405244241203 -0.7659405244241203 -0.7659405244241203 -0.7612290052338906 -0.7612290052338906 -0.7612290052338906 -0.7612290052338906 -0.7445407487812228 
-0.7445407487812228 -0.7445407487812228 -0.7445407487812228 -0.716174895458658 -0.716174895458658 -0.716174895458658 -0.716174895458658 -0.6766374631116793 -0.6766374631116793 
-0.6766374631116793 -0.6766374631116793 -0.6266364692367887 -0.6266364692367887 -0.6266364692367887 -0.6266364692367887 -0.56706155038613 -0.56706155038613 -0.56706155038613 
-0.56706155038613 -0.4989451156414422 -0.4989451156414422 -0.4989451156414422 -0.4989451156414422 -0.4234084917444517 -0.4234084917444517 -0.4234084917444517 -0.4234084917444517 
-0.3416038460570527 -0.3416038460570527 -0.3416038460570527 -0.3416038460570527 -0.2546676445655023 -0.2546676445655023 -0.2546676445655023 -0.2546676445655023 -0.1637015226306463 