Title = Result/Post/Linear_Advection_2D/FVM/MLP_u1_Least_Square/Sine_Wave_2D/Quad50/
FileType = Solution
Variables = q
Zone T = Result/Post/Linear_Advection_2D/FVM/MLP_u1_Least_Square/Sine_Wave_2D/Quad50/
ZoneType = FETriangle
Nodes = 10000
Elements = 5000
DataPacking = Block
StrandID = 12
SolutionTime = 1.1
-0.09029441898864139 -0.09029441898864139 -0.09029441898864139 -0.09029441898864139 -0.07859985177113039 -0.07859985177113039 -0.07859985177113039 -0.07859985177113039 -0.05997761105306225 -0.05997761105306225 
-0.05997761105306225 -0.05997761105306225 -0.03888019781228126 -0.03888019781228126 -0.03888019781228126 -0.03888019781228126 -0.01661626391490128 -0.01661626391490128 -0.01661626391490128 
-0.01661626391490128 0.006223267636681275 0.006223267636681275 0.006223267636681275 0.006223267636681275 0.02923309318559255 0.02923309318559255 0.02923309318559255 0.02923309318559255 
0.05207820222999686 0.05207820222999686 0.05207820222999686 0.05207820222999686 0.07437363648432332 0.07437363648432332 0.07437363648432332 0.07437363648432332 0.09568903552061642 
0.09568903552061642 0.09568903552061642 0.09568903552061642 0.1155401960321152 0.1155401960321152 0.1155401960321152 0.1155401960321152 0.1334503420474291 0.1334503420474291 
0.1334503420474291 0.1334503420474291 0.1490176070885847 0.1490176070885847 0.1490176070885847 0.1490176070885847 0.1619567414125309 0.1619567414125309 0.1619567414125309 
0.1619567414125309 0.1721083029669659 0.1721083029669659 0.1721083029669659 0.1721083029669659 0.179404318279483 0.179404318279483 0.179404318279483 0.179404318279483 
0.183813308245058 0.183813308245058 0.183813308245058 0.183813308245058 0.185337877934369 0.185337877934369 0.185337877934369 0.185337877934369 0.1840288767653386 
0.1840288767653386 0.1840288767653386 0.1840288767653386 0.1799033296463698 0.1799033296463698 0.1799033296463698 0.1799033296463698 0.1729701281287596 0.1729701281287596 
0.1729701281287596 0.1729701281287596 0.1633219032146826 0.1633219032146826 0.1633219032146826 0.1633219032146826 0.151091840393128 0.151091840393128 0.151091840393128 
0.151091840393128 0.1364688427114894 0.1364688427114894 0.1364688427114894 0.1364688427114894 0.1196795587786225 0.1196795587786225 0.1196795587786225 0.1196795587786225 
0.1009930752941432 0.1009930752941432 0.1009930752941432 0.1009930752941432 0.08058210861724922 0.08058210861724922 0.08058210861724922 0.08058210861724922 0.05901148955166056 
0.05901148955166056 0.05901148955166056 0.05901148955166056 0.03672933923058944 0.03672933923058944 0.03672933923058944 0.03672933923058944 0.01366788373072722 0.01366788373072722 
0.01366788373072722 0.01366788373072722 -0.009657492595949285 -0.009657492595949285 -0.009657492595949285 -0.009657492595949285 -0.03276103558731918 -0.03276103558731918 -0.03276103558731918 
-0.03276103558731918 -0.05534905817200506 -0.05534905817200506 -0.05534905817200506 -0.05534905817200506 -0.07703125274227135 -0.07703125274227135 -0.07703125274227135 -0.07703125274227135 
-0.09755304253996851 -0.09755304253996851 -0.09755304253996851 -0.09755304253996851 -0.1165477792312858 -0.1165477792312858 -0.1165477792312858 -0.1165477792312858 -0.1336957257290187 
-0.1336957257290187 -0.1336957257290187 -0.1336957257290187 -0.1487368112885832 -0.1487368112885832 -0.1487368112885832 -0.1487368112885832 -0.1614250825186029 -0.1614250825186029 
-0.1614250825186029 -0.1614250825186029 -0.1715692417205708 -0.1715692417205708 -0.1715692417205708 -0.1715692417205708 -0.1790087284463217 -0.1790087284463217 -0.1790087284463217 
-0.1790087284463217 -0.1836139236352509 -0.1836139236352509 -0.1836139236352509 -0.1836139236352509 -0.1853050559651429 -0.1853050559651429 -0.1853050559651429 -0.1853050559651429 
-0.1840893538318759 -0.1840893538318759 -0.1840893538318759 -0.1840893538318759 -0.1800035113968972 -0.1800035113968972 -0.1800035113968972 -0.1800035113968972 -0.1729965967931932 
-0.1729965967931932 -0.1729965967931932 -0.1729965967931932 -0.1635349271538029 -0.1635349271538029 -0.1635349271538029 -0.1635349271538029 -0.1504299509733518 -0.1504299509733518 
-0.1504299509733518 -0.1504299509733518 -0.1393190652221821 -0.1393190652221821 -0.1393190652221821 -0.1393190652221821 -0.1096908801695513 -0.1096908801695513 -0.1096908801695513 
-0.1096908801695513 -0.0550684321577376 -0.0550684321577376 -0.0550684321577376 -0.0550684321577376 -0.04704038707543841 -0.04704038707543841 -0.04704038707543841 -0.04704038707543841 
-0.03576463023620745 -0.03576463023620745 -0.03576463023620745 -0.03576463023620745 -0.02326462124736341 -0.02326462124736341 -0.02326462124736341 -0.02326462124736341 -0.01001700243876735 
-0.01001700243876735 -0.01001700243876735 -0.01001700243876735 0.00364418064232295 0.00364418064232295 0.00364418064232295 0.00364418064232295 0.01745038367833757 0.01745038367833757 
0.01745038367833757 0.01745038367833757 0.03116478615658805 0.03116478615658805 0.03116478615658805 0.03116478615658805 0.04456265254189602 0.04456265254189602 0.04456265254189602 
0.04456265254189602 0.05740410688073651 0.05740410688073651 0.05740410688073651 0.05740410688073651 0.06939080081409382 0.06939080081409382 0.06939080081409382 0.06939080081409382 
0.08022423237019927 0.08022423237019927 0.08022423237019927 0.08022423237019927 0.0896450747185765 0.0896450747185765 0.0896450747185765 0.0896450747185765 0.09747149242250319 
0.09747149242250319 0.09747149242250319 0.09747149242250319 0.1036048754210268 0.1036048754210268 0.1036048754210268 0.1036048754210268 0.108004448396895 0.108004448396895 
0.108004448396895 0.108004448396895 0.110660538774822 0.110660538774822 0.110660538774822 0.110660538774822 0.1115852911439008 0.1115852911439008 0.1115852911439008 
0.1115852911439008 0.11080502031061 0.11080502031061 0.11080502031061 0.11080502031061 0.1083330690598473 0.1083330690598473 0.1083330690598473 0.1083330690598473 
0.1041772403978769 0.1041772403978769 0.1041772403978769 0.1041772403978769 0.09838352757133757 0.09838352757133757 0.09838352757133757 0.09838352757133757 0.09103153530050664 
0.09103153530050664 0.09103153530050664 0.09103153530050664 0.08223790125351774 0.08223790125351774 0.08223790125351774 0.08223790125351774 0.07213193659427621 0.07213193659427621 
0.07213193659427621 0.07213193659427621 0.06089265980114759 0.06089265980114759 0.06089265980114759 0.06089265980114759 0.04843825199112856 0.04843825199112856 0.04843825199112856 
0.04843825199112856 0.03565826267470006 0.03565826267470006 0.03565826267470006 0.03565826267470006 0.0224959561351171 0.0224959561351171 0.0224959561351171 0.0224959561351171 
0.008133591149658198 0.008133591149658198 0.008133591149658198 0.008133591149658198 -0.006182544551403536 -0.006182544551403536 -0.006182544551403536 -0.006182544551403536 -0.01995273731099456 
-0.01995273731099456 -0.01995273731099456 -0.01995273731099456 -0.03337097033898646 -0.03337097033898646 -0.03337097033898646 -0.03337097033898646 -0.04627508105134624 -0.04627508105134624 
-0.04627508105134624 -0.04627508105134624 -0.05860283450248813 -0.05860283450248813 -0.05860283450248813 -0.05860283450248813 -0.07005170890458673 -0.07005170890458673 -0.07005170890458673 
-0.07005170890458673 -0.08040018979021124 -0.08040018979021124 -0.08040018979021124 -0.08040018979021124 -0.08947687502710451 -0.08947687502710451 -0.08947687502710451 -0.08947687502710451 
-0.09713321731141035 -0.09713321731141035 -0.09713321731141035 -0.09713321731141035 -0.103256216030382 -0.103256216030382 -0.103256216030382 -0.103256216030382 -0.1077456771540831 
-0.1077456771540831 -0.1077456771540831 -0.1077456771540831 -0.1105274039129655 -0.1105274039129655 -0.1105274039129655 -0.1105274039129655 -0.111560698392592 -0.111560698392592 
-0.111560698392592 -0.111560698392592 -0.1108443574349143 -0.1108443574349143 -0.1108443574349143 -0.1108443574349143 -0.1083972816419259 -0.1083972816419259 -0.1083972816419259 
-0.1083972816419259 -0.1042159264474335 -0.1042159264474335 -0.1042159264474335 -0.1042159264474335 -0.09847694680421662 -0.09847694680421662 -0.09847694680421662 -0.09847694680421662 
-0.09083899537124512 -0.09083899537124512 -0.09083899537124512 -0.09083899537124512 -0.08336219726999308 -0.08336219726999308 -0.08336219726999308 -0.08336219726999308 -0.06681507381433602 
-0.06681507381433602 -0.06681507381433602 -0.06681507381433602 -0.00123019469031174 -0.00123019469031174 -0.00123019469031174 -0.00123019469031174 -0.0008478523638671649 -0.0008478523638671649 
-0.0008478523638671649 -0.0008478523638671649 -0.0005038165108639158 -0.0005038165108639158 -0.0005038165108639158 -0.0005038165108639158 -0.0003488980829797555 -0.0003488980829797555 -0.0003488980829797555 
-0.0003488980829797555 -0.0002352983134764167 -0.0002352983134764167 -0.0002352983134764167 -0.0002352983134764167 -0.0001162985907273976 -0.0001162985907273976 -0.0001162985907273976 -0.0001162985907273976 
-2.061650984079306e-05 -2.061650984079306e-05 -2.061650984079306e-05 -2.061650984079306e-05 3.989678383495172e-05 3.989678383495172e-05 3.989678383495172e-05 3.989678383495172e-05 0.0001266860925254314 
0.0001266860925254314 0.0001266860925254314 0.0001266860925254314 0.000280375258319371 0.000280375258319371 0.000280375258319371 0.000280375258319371 0.0005001323304328937 0.0005001323304328937 
0.0005001323304328937 0.0005001323304328937 0.0007544720759768628 0.0007544720759768628 0.0007544720759768628 0.0007544720759768628 0.0009930278766477224 0.0009930278766477224 0.0009930278766477224 
0.0009930278766477224 0.001184157404787765 0.001184157404787765 0.001184157404787765 0.001184157404787765 0.001318213871180701 0.001318213871180701 0.001318213871180701 0.001318213871180701 
0.001402923926901512 0.001402923926901512 0.001402923926901512 0.001402923926901512 0.001449834314161489 0.001449834314161489 0.001449834314161489 0.001449834314161489 0.0014723196503921 
0.0014723196503921 0.0014723196503921 0.0014723196503921 0.001483018571437571 0.001483018571437571 0.001483018571437571 0.001483018571437571 0.001483827213896949 0.001483827213896949 
0.001483827213896949 0.001483827213896949 0.001467509687034073 0.001467509687034073 0.001467509687034073 0.001467509687034073 0.001427775175662606 0.001427775175662606 0.001427775175662606 
0.001427775175662606 0.001360978553654042 0.001360978553654042 0.001360978553654042 0.001360978553654042 0.001271703032229424 0.001271703032229424 0.001271703032229424 0.001271703032229424 
0.001151621023293098 0.001151621023293098 0.001151621023293098 0.001151621023293098 0.001027603172610974 0.001027603172610974 0.001027603172610974 0.001027603172610974 0.0006370566543819501 
0.0006370566543819501 0.0006370566543819501 0.0006370566543819501 0.0008791126959154768 0.0008791126959154768 0.0008791126959154768 0.0008791126959154768 0.00116083687275014 0.00116083687275014 
0.00116083687275014 0.00116083687275014 0.0004792219307743307 0.0004792219307743307 0.0004792219307743307 0.0004792219307743307 -0.0001287068531099229 -0.0001287068531099229 -0.0001287068531099229 
-0.0001287068531099229 -0.0004565865193670547 -0.0004565865193670547 -0.0004565865193670547 -0.0004565865193670547 -0.0004383661674217347 -0.0004383661674217347 -0.0004383661674217347 -0.0004383661674217347 
-0.0003408850733083845 -0.0003408850733083845 -0.0003408850733083845 -0.0003408850733083845 -0.0004688959607015725 -0.0004688959607015725 -0.0004688959607015725 -0.0004688959607015725 -0.000639146638248774 
-0.000639146638248774 -0.000639146638248774 -0.000639146638248774 -0.0008296486372719528 -0.0008296486372719528 -0.0008296486372719528 -0.0008296486372719528 -0.0009948110214587011 -0.0009948110214587011 
-0.0009948110214587011 -0.0009948110214587011 -0.001136934874628569 -0.001136934874628569 -0.001136934874628569 -0.001136934874628569 -0.001256045249948402 -0.001256045249948402 -0.001256045249948402 
-0.001256045249948402 -0.001351140662333012 -0.001351140662333012 -0.001351140662333012 -0.001351140662333012 -0.001421195141576111 -0.001421195141576111 -0.001421195141576111 -0.001421195141576111 
-0.001466791704238282 -0.001466791704238282 -0.001466791704238282 -0.001466791704238282 -0.001494880347618957 -0.001494880347618957 -0.001494880347618957 -0.001494880347618957 -0.001503884909003755 
-0.001503884909003755 -0.001503884909003755 -0.001503884909003755 -0.001500620560649792 -0.001500620560649792 -0.001500620560649792 -0.001500620560649792 -0.001436333325455155 -0.001436333325455155 
-0.001436333325455155 -0.001436333325455155 -0.001475908091186695 -0.001475908091186695 -0.001475908091186695 -0.001475908091186695 -0.001079037557417086 -0.001079037557417086 -0.001079037557417086 
-0.001079037557417086 -0.001210056289248239 -0.001210056289248239 -0.001210056289248239 -0.001210056289248239 0.05674497068266005 0.05674497068266005 0.05674497068266005 0.05674497068266005 
0.04901243631286503 0.04901243631286503 0.04901243631286503 0.04901243631286503 0.03716583442644531 0.03716583442644531 0.03716583442644531 0.03716583442644531 0.02392771594840647 
0.02392771594840647 0.02392771594840647 0.02392771594840647 0.01002328963550092 0.01002328963550092 0.01002328963550092 0.01002328963550092 -0.004268674940919912 -0.004268674940919912 
-0.004268674940919912 -0.004268674940919912 -0.01877953302869638 -0.01877953302869638 -0.01877953302869638 -0.01877953302869638 -0.03327343401210399 -0.03327343401210399 -0.03327343401210399 
-0.03327343401210399 -0.04742732677234472 -0.04742732677234472 -0.04742732677234472 -0.04742732677234472 -0.06088542185641497 -0.06088542185641497 -0.06088542185641497 -0.06088542185641497 
-0.0733090659567196 -0.0733090659567196 -0.0733090659567196 -0.0733090659567196 -0.08443653508555039 -0.08443653508555039 -0.08443653508555039 -0.08443653508555039 -0.09407562607633999 
-0.09407562607633999 -0.09407562607633999 -0.09407562607633999 -0.1020933976299694 -0.1020933976299694 -0.1020933976299694 -0.1020933976299694 -0.1084027026419799 -0.1084027026419799 
-0.1084027026419799 -0.1084027026419799 -0.11294861142738 -0.11294861142738 -0.11294861142738 -0.11294861142738 -0.1157015754013914 -0.1157015754013914 -0.1157015754013914 
-0.1157015754013914 -0.1166478955862159 -0.1166478955862159 -0.1166478955862159 -0.1166478955862159 -0.115784797309931 -0.115784797309931 -0.115784797309931 -0.115784797309931 
-0.113123844094086 -0.113123844094086 -0.113123844094086 -0.113123844094086 -0.1086974855727233 -0.1086974855727233 -0.1086974855727233 -0.1086974855727233 -0.1025649147672683 
-0.1025649147672683 -0.1025649147672683 -0.1025649147672683 -0.09481621496999866 -0.09481621496999866 -0.09481621496999866 -0.09481621496999866 -0.08556681136859079 -0.08556681136859079 
-0.08556681136859079 -0.08556681136859079 -0.07496896256977836 -0.07496896256977836 -0.07496896256977836 -0.07496896256977836 -0.06316254642538499 -0.06316254642538499 -0.06316254642538499 
-0.06316254642538499 -0.05055565456356279 -0.05055565456356279 -0.05055565456356279 -0.05055565456356279 -0.03669135972605078 -0.03669135972605078 -0.03669135972605078 -0.03669135972605078 
-0.02208687971329544 -0.02208687971329544 -0.02208687971329544 -0.02208687971329544 -0.007634704651847095 -0.007634704651847095 -0.007634704651847095 -0.007634704651847095 0.006557724771960767 
0.006557724771960767 0.006557724771960767 0.006557724771960767 0.02079345635710355 0.02079345635710355 0.02079345635710355 0.02079345635710355 0.03516605392150573 0.03516605392150573 
0.03516605392150573 0.03516605392150573 0.04894785536237391 0.04894785536237391 0.04894785536237391 0.04894785536237391 0.06188401046630396 0.06188401046630396 0.06188401046630396 
0.06188401046630396 0.07378664908627706 0.07378664908627706 0.07378664908627706 0.07378664908627706 0.08450404338797571 0.08450404338797571 0.08450404338797571 0.08450404338797571 
0.09390279877340192 0.09390279877340192 0.09390279877340192 0.09390279877340192 0.1018242958451971 0.1018242958451971 0.1018242958451971 0.1018242958451971 0.1081458310783406 
0.1081458310783406 0.1081458310783406 0.1081458310783406 0.112764444476851 0.112764444476851 0.112764444476851 0.112764444476851 0.1156051823632328 0.1156051823632328 
0.1156051823632328 0.1156051823632328 0.11662293458807 0.11662293458807 0.11662293458807 0.11662293458807 0.115796213803608 0.115796213803608 0.115796213803608 
0.115796213803608 0.1131478623039887 0.1131478623039887 0.1131478623039887 0.1131478623039887 0.108670807866784 0.108670807866784 0.108670807866784 0.108670807866784 
0.1026469281550741 0.1026469281550741 0.1026469281550741 0.1026469281550741 0.09438369507522054 0.09438369507522054 0.09438369507522054 0.09438369507522054 0.08717865722673049 
0.08717865722673049 0.08717865722673049 0.08717865722673049 0.06918090929506494 0.06918090929506494 0.06918090929506494 0.06918090929506494 0.1146790113873907 0.1146790113873907 
0.1146790113873907 0.1146790113873907 0.09905017556979975 0.09905017556979975 0.09905017556979975 0.09905017556979975 0.07499599200021015 0.07499599200021015 0.07499599200021015 
0.07499599200021015 0.04820126628124929 0.04820126628124929 0.04820126628124929 0.04820126628124929 0.02016093491122045 0.02016093491122045 0.02016093491122045 0.02016093491122045 
-0.008584743893592407 -0.008584743893592407 -0.008584743893592407 -0.008584743893592407 -0.03766493115666664 -0.03766493115666664 -0.03766493115666664 -0.03766493115666664 -0.06664470051469593 
-0.06664470051469593 -0.06664470051469593 -0.06664470051469593 -0.09496613108433889 -0.09496613108433889 -0.09496613108433889 -0.09496613108433889 -0.121973998195182 -0.121973998195182 
-0.121973998195182 -0.121973998195182 -0.1470186966377321 -0.1470186966377321 -0.1470186966377321 -0.1470186966377321 -0.1695313456292804 -0.1695313456292804 -0.1695313456292804 
-0.1695313456292804 -0.1890663650970527 -0.1890663650970527 -0.1890663650970527 -0.1890663650970527 -0.2053151962472403 -0.2053151962472403 -0.2053151962472403 -0.2053151962472403 
-0.2180858838864935 -0.2180858838864935 -0.2180858838864935 -0.2180858838864935 -0.2272750752021125 -0.2272750752021125 -0.2272750752021125 -0.2272750752021125 -0.2328367109879124 
-0.2328367109879124 -0.2328367109879124 -0.2328367109879124 -0.2347565345667892 -0.2347565345667892 -0.2347565345667892 -0.2347565345667892 -0.2330395830160962 -0.2330395830160962 
-0.2330395830160962 -0.2330395830160962 -0.2277130817842736 -0.2277130817842736 -0.2277130817842736 -0.2277130817842736 -0.2188396463937654 -0.2188396463937654 -0.2188396463937654 
-0.2188396463937654 -0.2065329998666766 -0.2065329998666766 -0.2065329998666766 -0.2065329998666766 -0.1909687876129643 -0.1909687876129643 -0.1909687876129643 -0.1909687876129643 
-0.1723815087533734 -0.1723815087533734 -0.1723815087533734 -0.1723815087533734 -0.151067017832782 -0.151067017832782 -0.151067017832782 -0.151067017832782 -0.1273394757714954 
-0.1273394757714954 -0.1273394757714954 -0.1273394757714954 -0.1017276607333408 -0.1017276607333408 -0.1017276607333408 -0.1017276607333408 -0.07434370280501312 -0.07434370280501312 
-0.07434370280501312 -0.07434370280501312 -0.0455853101892543 -0.0455853101892543 -0.0455853101892543 -0.0455853101892543 -0.01628975497712863 -0.01628975497712863 -0.01628975497712863 
-0.01628975497712863 0.01295143824782995 0.01295143824782995 0.01295143824782995 0.01295143824782995 0.04209273913430667 0.04209273913430667 0.04209273913430667 0.04209273913430667 
0.07069539386980384 0.07069539386980384 0.07069539386980384 0.07069539386980384 0.09822976060181829 0.09822976060181829 0.09822976060181829 0.09822976060181829 0.1242039862925684 
0.1242039862925684 0.1242039862925684 0.1242039862925684 0.1481726110583425 0.1481726110583425 0.1481726110583425 0.1481726110583425 0.1698081055487111 0.1698081055487111 
0.1698081055487111 0.1698081055487111 0.1887693267711124 0.1887693267711124 0.1887693267711124 0.1887693267711124 0.2047560533140645 0.2047560533140645 0.2047560533140645 
0.2047560533140645 0.2175181186906162 0.2175181186906162 0.2175181186906162 0.2175181186906162 0.2268513557011876 0.2268513557011876 0.2268513557011876 0.2268513557011876 
0.2326060355346388 0.2326060355346388 0.2326060355346388 0.2326060355346388 0.2346909476930658 0.2346909476930658 0.2346909476930658 0.2346909476930658 0.233066046755917 
0.233066046755917 0.233066046755917 0.233066046755917 0.2277754129034214 0.2277754129034214 0.2277754129034214 0.2277754129034214 0.2188171809091968 0.2188171809091968 
0.2188171809091968 0.2188171809091968 0.2067034430897178 0.2067034430897178 0.2067034430897178 0.2067034430897178 0.1902175544082474 0.1902175544082474 0.1902175544082474 
0.1902175544082474 0.1754845583012141 0.1754845583012141 0.1754845583012141 0.1754845583012141 0.1394882950464269 0.1394882950464269 0.1394882950464269 0.1394882950464269 
0.1709557673166325 0.1709557673166325 0.1709557673166325 0.1709557673166325 0.1477208586094638 0.1477208586094638 0.1477208586094638 0.1477208586094638 0.1118828860157462 
0.1118828860157462 0.1118828860157462 0.1118828860157462 0.07190294469283387 0.07190294469283387 0.07190294469283387 0.07190294469283387 0.03004754811998864 0.03004754811998864 
0.03004754811998864 0.03004754811998864 -0.01282694882756312 -0.01282694882756312 -0.01282694882756312 -0.01282694882756312 -0.05612584030836901 -0.05612584030836901 -0.05612584030836901 
-0.05612584030836901 -0.09920299129968363 -0.09920299129968363 -0.09920299129968363 -0.09920299129968363 -0.1412651905348068 -0.1412651905348068 -0.1412651905348068 -0.1412651905348068 
-0.1814007225118568 -0.1814007225118568 -0.1814007225118568 -0.1814007225118568 -0.2186724427109497 -0.2186724427109497 -0.2186724427109497 -0.2186724427109497 -0.2522250899675504 
-0.2522250899675504 -0.2522250899675504 -0.2522250899675504 -0.2813721672354198 -0.2813721672354198 -0.2813721672354198 -0.2813721672354198 -0.3056273186438166 -0.3056273186438166 
-0.3056273186438166 -0.3056273186438166 -0.3246911605184679 -0.3246911605184679 -0.3246911605184679 -0.3246911605184679 -0.3384079968315939 -0.3384079968315939 -0.3384079968315939 
-0.3384079968315939 -0.3467124843593052 -0.3467124843593052 -0.3467124843593052 -0.3467124843593052 -0.3495877468898806 -0.3495877468898806 -0.3495877468898806 -0.3495877468898806 
-0.3470450396010767 -0.3470450396010767 -0.3470450396010767 -0.3470450396010767 -0.339127392262221 -0.339127392262221 -0.339127392262221 -0.339127392262221 -0.325929071122108 
-0.325929071122108 -0.325929071122108 -0.325929071122108 -0.3076187455874116 -0.3076187455874116 -0.3076187455874116 -0.3076187455874116 -0.2844557206190588 -0.2844557206190588 
-0.2844557206190588 -0.2844557206190588 -0.2567902103005833 -0.2567902103005833 -0.2567902103005833 -0.2567902103005833 -0.2250592916546952 -0.2250592916546952 -0.2250592916546952 
-0.2250592916546952 -0.1897506495324716 -0.1897506495324716 -0.1897506495324716 -0.1897506495324716 -0.1515042175895008 -0.1515042175895008 -0.1515042175895008 -0.1515042175895008 
-0.1108493759197019 -0.1108493759197019 -0.1108493759197019 -0.1108493759197019 -0.06834109164569098 -0.06834109164569098 -0.06834109164569098 -0.06834109164569098 -0.02478735544132225 
-0.02478735544132225 -0.02478735544132225 -0.02478735544132225 0.01906484358689792 0.01906484358689792 0.01906484358689792 0.01906484358689792 0.06259271677174064 0.06259271677174064 
0.06259271677174064 0.06259271677174064 0.1051762954847991 0.1051762954847991 0.1051762954847991 0.1051762954847991 0.1461412631902217 0.1461412631902217 0.1461412631902217 
0.1461412631902217 0.1847812590738636 0.1847812590738636 0.1847812590738636 0.1847812590738636 0.220500343780523 0.220500343780523 0.220500343780523 0.220500343780523 
0.2527443194945105 0.2527443194945105 0.2527443194945105 0.2527443194945105 0.2810008508415293 0.2810008508415293 0.2810008508415293 0.2810008508415293 0.3048284698176968 
0.3048284698176968 0.3048284698176968 0.3048284698176968 0.3238517744394206 0.3238517744394206 0.3238517744394206 0.3238517744394206 0.3377693047572615 0.3377693047572615 
0.3377693047572615 0.3377693047572615 0.3463584832757047 0.3463584832757047 0.3463584832757047 0.3463584832757047 0.3494828596299346 0.3494828596299346 0.3494828596299346 
0.3494828596299346 0.3470828241330812 0.3470828241330812 0.3470828241330812 0.3470828241330812 0.3392226576742131 0.3392226576742131 0.3392226576742131 0.3392226576742131 
0.3259068074654481 0.3259068074654481 0.3259068074654481 0.3259068074654481 0.3078740204760011 0.3078740204760011 0.3078740204760011 0.3078740204760011 0.2833833474294449 
0.2833833474294449 0.2833833474294449 0.2833833474294449 0.2613869836473076 0.2613869836473076 0.2613869836473076 0.2613869836473076 0.207820620132711 0.207820620132711 
0.207820620132711 0.207820620132711 0.2245590435836005 0.2245590435836005 0.2245590435836005 0.2245590435836005 0.1940737078584105 0.1940737078584105 0.1940737078584105 
0.1940737078584105 0.1470455785067405 0.1470455785067405 0.1470455785067405 0.1470455785067405 0.09454593002442249 0.09454593002442249 0.09454593002442249 0.09454593002442249 
0.03954203257356718 0.03954203257356718 0.03954203257356718 0.03954203257356718 -0.01681776257298886 -0.01681776257298886 -0.01681776257298886 -0.01681776257298886 -0.07371405045183319 
-0.07371405045183319 -0.07371405045183319 -0.07371405045183319 -0.1302709799447911 -0.1302709799447911 -0.1302709799447911 -0.1302709799447911 -0.18545699968285 -0.18545699968285 
-0.18545699968285 -0.18545699968285 -0.238104384593594 -0.238104384593594 -0.238104384593594 -0.238104384593594 -0.2870064565201753 -0.2870064565201753 -0.2870064565201753 
-0.2870064565201753 -0.3310513945639791 -0.3310513945639791 -0.3310513945639791 -0.3310513945639791 -0.369332148034361 -0.369332148034361 -0.369332148034361 -0.369332148034361 
-0.4011997687296271 -0.4011997687296271 -0.4011997687296271 -0.4011997687296271 -0.4262539029611214 -0.4262539029611214 -0.4262539029611214 -0.4262539029611214 -0.4442864243982734 
-0.4442864243982734 -0.4442864243982734 -0.4442864243982734 -0.4552106567024696 -0.4552106567024696 -0.4552106567024696 -0.4552106567024696 -0.4590042254340219 -0.4590042254340219 
-0.4590042254340219 -0.4590042254340219 -0.4556819367098847 -0.4556819367098847 -0.4556819367098847 -0.4556819367098847 -0.4453006336894151 -0.4453006336894151 -0.4453006336894151 
-0.4453006336894151 -0.4279846370100758 -0.4279846370100758 -0.4279846370100758 -0.4279846370100758 -0.4039555440321169 -0.4039555440321169 -0.4039555440321169 -0.4039555440321169 
-0.3735529260195715 -0.3735529260195715 -0.3735529260195715 -0.3735529260195715 -0.3372372915774388 -0.3372372915774388 -0.3372372915774388 -0.3372372915774388 -0.295581684151573 
-0.295581684151573 -0.295581684151573 -0.295581684151573 -0.2492406310007539 -0.2492406310007539 -0.2492406310007539 -0.2492406310007539 -0.1989823189315606 -0.1989823189315606 
-0.1989823189315606 -0.1989823189315606 -0.1455961159373346 -0.1455961159373346 -0.1455961159373346 -0.1455961159373346 -0.08988721901696317 -0.08988721901696317 -0.08988721901696317 
-0.08988721901696317 -0.03275472985834482 -0.03275472985834482 -0.03275472985834482 -0.03275472985834482 0.02486915906986139 0.02486915906986139 0.02486915906986139 0.02486915906986139 
0.08208809032171649 0.08208809032171649 0.08208809032171649 0.08208809032171649 0.1380262961088177 0.1380262961088177 0.1380262961088177 0.1380262961088177 0.1917893140958107 
0.1917893140958107 0.1917893140958107 0.1917893140958107 0.2425252220832987 0.2425252220832987 0.2425252220832987 0.2425252220832987 0.2894373991798823 0.2894373991798823 
0.2894373991798823 0.2894373991798823 0.3317828485342799 0.3317828485342799 0.3317828485342799 0.3317828485342799 0.3688962062266963 0.3688962062266963 0.3688962062266963 
0.3688962062266963 0.4001941848337319 0.4001941848337319 0.4001941848337319 0.4001941848337319 0.4251836140160324 0.4251836140160324 0.4251836140160324 0.4251836140160324 
0.4434692668907417 0.4434692668907417 0.4434692668907417 0.4434692668907417 0.4547594883184342 0.4547594883184342 0.4547594883184342 0.4547594883184342 0.4588749682490064 
0.4588749682490064 0.4588749682490064 0.4588749682490064 0.4557371342770585 0.4557371342770585 0.4557371342770585 0.4557371342770585 0.445429303581012 0.445429303581012 
0.445429303581012 0.445429303581012 0.4279615823661247 0.4279615823661247 0.4279615823661247 0.4279615823661247 0.4042916655761113 0.4042916655761113 0.4042916655761113 
0.4042916655761113 0.3721643339867906 0.3721643339867906 0.3721643339867906 0.3721643339867906 0.3432735122029525 0.3432735122029525 0.3432735122029525 0.3432735122029525 
0.2729406659288873 0.2729406659288873 0.2729406659288873 0.2729406659288873 0.2746231820848493 0.2746231820848493 0.2746231820848493 0.2746231820848493 0.2373523402887263 
0.2373523402887263 0.2373523402887263 0.2373523402887263 0.1798714582416591 0.1798714582416591 0.1798714582416591 0.1798714582416591 0.1157030284864339 0.1157030284864339 
0.1157030284864339 0.1157030284864339 0.04845481284185631 0.04845481284185631 0.04845481284185631 0.04845481284185631 -0.02047673552689791 -0.02047673552689791 -0.02047673552689791 
-0.02047673552689791 -0.09007731688408523 -0.09007731688408523 -0.09007731688408523 -0.09007731688408523 -0.1592569923724524 -0.1592569923724524 -0.1592569923724524 -0.1592569923724524 
-0.2267436135251326 -0.2267436135251326 -0.2267436135251326 -0.2267436135251326 -0.2911103422033953 -0.2911103422033953 -0.2911103422033953 -0.2911103422033953 -0.3508907732875282 
-0.3508907732875282 -0.3508907732875282 -0.3508907732875282 -0.4047323416717208 -0.4047323416717208 -0.4047323416717208 -0.4047323416717208 -0.4515290178082317 -0.4515290178082317 
-0.4515290178082317 -0.4515290178082317 -0.4904888052876979 -0.4904888052876979 -0.4904888052876979 -0.4904888052876979 -0.5211226104914293 -0.5211226104914293 -0.5211226104914293 
-0.5211226104914293 -0.5431763256494345 -0.5431763256494345 -0.5431763256494345 -0.5431763256494345 -0.5565437711862943 -0.5565437711862943 -0.5565437711862943 -0.5565437711862943 