Title = Result/Post/Linear_Advection_2D/FVM/MLP_u1_Least_Square/Sine_Wave_2D/Quad50/
FileType = Solution
Variables = q
Zone T = Result/Post/Linear_Advection_2D/FVM/MLP_u1_Least_Square/Sine_Wave_2D/Quad50/
ZoneType = FETriangle
Nodes = 10000
Elements = 5000
DataPacking = Block
StrandID = 18
SolutionTime = 1.7
0.7570454592489738 0.7570454592489738 0.7570454592489738 0.7570454592489738 0.7274455225364722 0.7274455225364722 0.7274455225364722 0.7274455225364722 0.6757031946722721 0.6757031946722721 
0.6757031946722721 0.6757031946722721 0.6111545109761164 0.6111545109761164 0.6111545109761164 0.6111545109761164 0.5365674033944384 0.5365674033944384 0.5365674033944384 
0.5365674033944384 0.4535667501652644 0.4535667501652644 0.4535667501652644 0.4535667501652644 0.3635239918043807 0.3635239918043807 0.3635239918043807 0.3635239918043807 
0.2676461314100701 0.2676461314100701 0.2676461314100701 0.2676461314100701 0.167171270886652 0.167171270886652 0.167171270886652 0.167171270886652 0.06367596399791892 
0.06367596399791892 0.06367596399791892 0.06367596399791892 -0.04087613570829034 -0.04087613570829034 -0.04087613570829034 -0.04087613570829034 -0.1444561472537775 -0.1444561472537775 
-0.1444561472537775 -0.1444561472537775 -0.2453345092546036 -0.2453345092546036 -0.2453345092546036 -0.2453345092546036 -0.3421407003070964 -0.3421407003070964 -0.3421407003070964 
-0.3421407003070964 -0.4336388986941381 -0.4336388986941381 -0.4336388986941381 -0.4336388986941381 -0.5185134956520783 -0.5185134956520783 -0.5185134956520783 -0.5185134956520783 
-0.5953644094328989 -0.5953644094328989 -0.5953644094328989 -0.5953644094328989 -0.662855469210148 -0.662855469210148 -0.662855469210148 -0.662855469210148 -0.7198496387975919 
-0.7198496387975919 -0.7198496387975919 -0.7198496387975919 -0.7654467179489246 -0.7654467179489246 -0.7654467179489246 -0.7654467179489246 -0.7989551691427802 -0.7989551691427802 
-0.7989551691427802 -0.7989551691427802 -0.8198638745993605 -0.8198638745993605 -0.8198638745993605 -0.8198638745993605 -0.827825752389976 -0.827825752389976 -0.827825752389976 
-0.827825752389976 -0.822769345554669 -0.822769345554669 -0.822769345554669 -0.822769345554669 -0.8047669368996895 -0.8047669368996895 -0.8047669368996895 -0.8047669368996895 
-0.7741391793291974 -0.7741391793291974 -0.7741391793291974 -0.7741391793291974 -0.7314401298494992 -0.7314401298494992 -0.7314401298494992 -0.7314401298494992 -0.6774399512711727 
-0.6774399512711727 -0.6774399512711727 -0.6774399512711727 -0.6130954440084631 -0.6130954440084631 -0.6130954440084631 -0.6130954440084631 -0.5395115095920371 -0.5395115095920371 
-0.5395115095920371 -0.5395115095920371 -0.4578862790875838 -0.4578862790875838 -0.4578862790875838 -0.4578862790875838 -0.3694542431384763 -0.3694542431384763 -0.3694542431384763 
-0.3694542431384763 -0.275441364607108 -0.275441364607108 -0.275441364607108 -0.275441364607108 -0.1770477237754672 -0.1770477237754672 -0.1770477237754672 -0.1770477237754672 
-0.07546641398176179 -0.07546641398176179 -0.07546641398176179 -0.07546641398176179 0.0280644128829521 0.0280644128829521 0.0280644128829521 0.0280644128829521 0.1321926680258733 
0.1321926680258733 0.1321926680258733 0.1321926680258733 0.2353928443562931 0.2353928443562931 0.2353928443562931 0.2353928443562931 0.3359436546927124 0.3359436546927124 
0.3359436546927124 0.3359436546927124 0.4319616686307 0.4319616686307 0.4319616686307 0.4319616686307 0.5214932978388617 0.5214932978388617 0.5214932978388617 
0.5214932978388617 0.602645791092245 0.602645791092245 0.602645791092245 0.602645791092245 0.6737328212832705 0.6737328212832705 0.6737328212832705 0.6737328212832705 
0.7333691956780191 0.7333691956780191 0.7333691956780191 0.7333691956780191 0.7806113010810272 0.7806113010810272 0.7806113010810272 0.7806113010810272 0.8146432095141366 
0.8146432095141366 0.8146432095141366 0.8146432095141366 0.8359400230109078 0.8359400230109078 0.8359400230109078 0.8359400230109078 0.8415296435153135 0.8415296435153135 
0.8415296435153135 0.8415296435153135 0.842223891347841 0.842223891347841 0.842223891347841 0.842223891347841 0.8001188009428516 0.8001188009428516 0.8001188009428516 
0.8001188009428516 0.7857606196773715 0.7857606196773715 0.7857606196773715 0.7857606196773715 0.7551715016846055 0.7551715016846055 0.7551715016846055 0.7551715016846055 
0.7016149396742186 0.7016149396742186 0.7016149396742186 0.7016149396742186 0.6345993170522046 0.6345993170522046 0.6345993170522046 0.6345993170522046 0.5571559544061031 
0.5571559544061031 0.5571559544061031 0.5571559544061031 0.4710701032431262 0.4710701032431262 0.4710701032431262 0.4710701032431262 0.3777479056069955 0.3777479056069955 
0.3777479056069955 0.3777479056069955 0.2782884423859042 0.2782884423859042 0.2782884423859042 0.2782884423859042 0.1738323422299969 0.1738323422299969 0.1738323422299969 
0.1738323422299969 0.06605283179439471 0.06605283179439471 0.06605283179439471 0.06605283179439471 -0.04280273703208286 -0.04280273703208286 -0.04280273703208286 -0.04280273703208286 
-0.1504338975005056 -0.1504338975005056 -0.1504338975005056 -0.1504338975005056 -0.2550275198127324 -0.2550275198127324 -0.2550275198127324 -0.2550275198127324 -0.3553026619255866 
-0.3553026619255866 -0.3553026619255866 -0.3553026619255866 -0.4501327262508675 -0.4501327262508675 -0.4501327262508675 -0.4501327262508675 -0.5382098516399533 -0.5382098516399533 
-0.5382098516399533 -0.5382098516399533 -0.6180407421571006 -0.6180407421571006 -0.6180407421571006 -0.6180407421571006 -0.6881707958935406 -0.6881707958935406 -0.6881707958935406 
-0.6881707958935406 -0.7473809484047775 -0.7473809484047775 -0.7473809484047775 -0.7473809484047775 -0.7947340751822846 -0.7947340751822846 -0.7947340751822846 -0.7947340751822846 
-0.8295243296106133 -0.8295243296106133 -0.8295243296106133 -0.8295243296106133 -0.8512285064355481 -0.8512285064355481 -0.8512285064355481 -0.8512285064355481 -0.8595108210143408 
-0.8595108210143408 -0.8595108210143408 -0.8595108210143408 -0.8542586696258589 -0.8542586696258589 -0.8542586696258589 -0.8542586696258589 -0.8355731728973443 -0.8355731728973443 
-0.8355731728973443 -0.8355731728973443 -0.8037812545511667 -0.8037812545511667 -0.8037812545511667 -0.8037812545511667 -0.7594550344079037 -0.7594550344079037 -0.7594550344079037 
-0.7594550344079037 -0.7033926455047141 -0.7033926455047141 -0.7033926455047141 -0.7033926455047141 -0.6365883321608464 -0.6365883321608464 -0.6365883321608464 -0.6365883321608464 
-0.5601901014483197 -0.5601901014483197 -0.5601901014483197 -0.5601901014483197 -0.4754430058381889 -0.4754430058381889 -0.4754430058381889 -0.4754430058381889 -0.3836298769747014 
-0.3836298769747014 -0.3836298769747014 -0.3836298769747014 -0.286024330272797 -0.286024330272797 -0.286024330272797 -0.286024330272797 -0.1838724161098522 -0.1838724161098522 
-0.1838724161098522 -0.1838724161098522 -0.0784120411529963 -0.0784120411529963 -0.0784120411529963 -0.0784120411529963 0.02907291918339639 0.02907291918339639 0.02907291918339639 
0.02907291918339639 0.1371807344144466 0.1371807344144466 0.1371807344144466 0.1371807344144466 0.2443294537063571 0.2443294537063571 0.2443294537063571 0.2443294537063571 
0.3487330356245943 0.3487330356245943 0.3487330356245943 0.3487330356245943 0.4484358322404465 0.4484358322404465 0.4484358322404465 0.4484358322404465 0.541408061712954 
0.541408061712954 0.541408061712954 0.541408061712954 0.6256821036650146 0.6256821036650146 0.6256821036650146 0.6256821036650146 0.6995045118587112 0.6995045118587112 
0.6995045118587112 0.6995045118587112 0.7614344454925221 0.7614344454925221 0.7614344454925221 0.7614344454925221 0.8104928217744291 0.8104928217744291 0.8104928217744291 
0.8104928217744291 0.845823691329016 0.845823691329016 0.845823691329016 0.845823691329016 0.8679452054109645 0.8679452054109645 0.8679452054109645 0.8679452054109645 
0.8736958810484587 0.8736958810484587 0.8736958810484587 0.8736958810484587 0.8746506886539311 0.8746506886539311 0.8746506886539311 0.8746506886539311 0.8307711114571659 
0.8307711114571659 0.8307711114571659 0.8307711114571659 0.8199866077105216 0.8199866077105216 0.8199866077105216 0.8199866077105216 0.7878562233065831 0.7878562233065831 
0.7878562233065831 0.7878562233065831 0.7319846078858496 0.7319846078858496 0.7319846078858496 0.7319846078858496 0.6621394706369348 0.6621394706369348 0.6621394706369348 
0.6621394706369348 0.5815016183273947 0.5815016183273947 0.5815016183273947 0.5815016183273947 0.4919933885321908 0.4919933885321908 0.4919933885321908 0.4919933885321908 
0.3949657621640638 0.3949657621640638 0.3949657621640638 0.3949657621640638 0.2912678174197747 0.2912678174197747 0.2912678174197747 0.2912678174197747 0.1818735992455116 
0.1818735992455116 0.1818735992455116 0.1818735992455116 0.06866079330765515 0.06866079330765515 0.06866079330765515 0.06866079330765515 -0.04560082836163677 -0.04560082836163677 
-0.04560082836163677 -0.04560082836163677 -0.1581357075330714 -0.1581357075330714 -0.1581357075330714 -0.1581357075330714 -0.2670112260430043 -0.2670112260430043 -0.2670112260430043 
-0.2670112260430043 -0.3711537116838559 -0.3711537116838559 -0.3711537116838559 -0.3711537116838559 -0.4696966858165297 -0.4696966858165297 -0.4696966858165297 -0.4696966858165297 
-0.5614180874910768 -0.5614180874910768 -0.5614180874910768 -0.5614180874910768 -0.6447173105174882 -0.6447173105174882 -0.6447173105174882 -0.6447173105174882 -0.7179623739619254 
-0.7179623739619254 -0.7179623739619254 -0.7179623739619254 -0.7798001406624301 -0.7798001406624301 -0.7798001406624301 -0.7798001406624301 -0.8292317251468808 -0.8292317251468808 
-0.8292317251468808 -0.8292317251468808 -0.8655340772179924 -0.8655340772179924 -0.8655340772179924 -0.8655340772179924 -0.8881781762184393 -0.8881781762184393 -0.8881781762184393 
-0.8881781762184393 -0.8968234328846514 -0.8968234328846514 -0.8968234328846514 -0.8968234328846514 -0.8913488376601761 -0.8913488376601761 -0.8913488376601761 -0.8913488376601761 
-0.8718592468844869 -0.8718592468844869 -0.8718592468844869 -0.8718592468844869 -0.8386976398951049 -0.8386976398951049 -0.8386976398951049 -0.8386976398951049 -0.7924564461754195 
-0.7924564461754195 -0.7924564461754195 -0.7924564461754195 -0.7339663650649536 -0.7339663650649536 -0.7339663650649536 -0.7339663650649536 -0.6642652127942454 -0.6642652127942454 
-0.6642652127942454 -0.6642652127942454 -0.5845516678573707 -0.5845516678573707 -0.5845516678573707 -0.5845516678573707 -0.4961262600895668 -0.4961262600895668 -0.4961262600895668 
-0.4961262600895668 -0.4003288673507551 -0.4003288673507551 -0.4003288673507551 -0.4003288673507551 -0.2984894673248595 -0.2984894673248595 -0.2984894673248595 -0.2984894673248595 
-0.1919085480540395 -0.1919085480540395 -0.1919085480540395 -0.1919085480540395 -0.08187719461164636 -0.08187719461164636 -0.08187719461164636 -0.08187719461164636 0.03026644347862921 
0.03026644347862921 0.03026644347862921 0.03026644347862921 0.1430618386012178 0.1430618386012178 0.1430618386012178 0.1430618386012178 0.2548604544478886 0.2548604544478886 
0.2548604544478886 0.2548604544478886 0.3638001816701811 0.3638001816701811 0.3638001816701811 0.3638001816701811 0.4678408034863927 0.4678408034863927 0.4678408034863927 
0.4678408034863927 0.5648634293374605 0.5648634293374605 0.5648634293374605 0.5648634293374605 0.6528128548566356 0.6528128548566356 0.6528128548566356 0.6528128548566356 
0.7298567623987041 0.7298567623987041 0.7298567623987041 0.7298567623987041 0.794489077978576 0.794489077978576 0.794489077978576 0.794489077978576 0.8456857951338188 
0.8456857951338188 0.8456857951338188 0.8456857951338188 0.8825536037086275 0.8825536037086275 0.8825536037086275 0.8825536037086275 0.905632500894234 0.905632500894234 
0.905632500894234 0.905632500894234 0.9116446280990358 0.9116446280990358 0.9116446280990358 0.9116446280990358 0.9126337719881411 0.9126337719881411 0.9126337719881411 
0.9126337719881411 0.8668779446936351 0.8668779446936351 0.8668779446936351 0.8668779446936351 0.8456540201059145 0.8456540201059145 0.8456540201059145 0.8456540201059145 
0.8124502491876636 0.8124502491876636 0.8124502491876636 0.8124502491876636 0.7547857726685311 0.7547857726685311 0.7547857726685311 0.7547857726685311 0.6828326130369382 
0.6828326130369382 0.6828326130369382 0.6828326130369382 0.5999230303914181 0.5999230303914181 0.5999230303914181 0.5999230303914181 0.5080436185838855 0.5080436185838855 
0.5080436185838855 0.5080436185838855 0.4084125160467542 0.4084125160467542 0.4084125160467542 0.4084125160467542 0.3015647270088785 0.3015647270088785 0.3015647270088785 
0.3015647270088785 0.1882661065642943 0.1882661065642943 0.1882661065642943 0.1882661065642943 0.07059379082163629 0.07059379082163629 0.07059379082163629 0.07059379082163629 
-0.04811690661991136 -0.04811690661991136 -0.04811690661991136 -0.04811690661991136 -0.1645487070008917 -0.1645487070008917 -0.1645487070008917 -0.1645487070008917 -0.2766107683111061 
-0.2766107683111061 -0.2766107683111061 -0.2766107683111061 -0.3834584193225776 -0.3834584193225776 -0.3834584193225776 -0.3834584193225776 -0.4845556617574869 -0.4845556617574869 
-0.4845556617574869 -0.4845556617574869 -0.5788434613906261 -0.5788434613906261 -0.5788434613906261 -0.5788434613906261 -0.6646638390788941 -0.6646638390788941 -0.6646638390788941 
-0.6646638390788941 -0.7402239612052496 -0.7402239612052496 -0.7402239612052496 -0.7402239612052496 -0.8040336724446424 -0.8040336724446424 -0.8040336724446424 -0.8040336724446424 
-0.8550274517282237 -0.8550274517282237 -0.8550274517282237 -0.8550274517282237 -0.8924646088205466 -0.8924646088205466 -0.8924646088205466 -0.8924646088205466 -0.9158117334421689 
-0.9158117334421689 -0.9158117334421689 -0.9158117334421689 -0.9247218686019686 -0.9247218686019686 -0.9247218686019686 -0.9247218686019686 -0.9190821691267274 -0.9190821691267274 
-0.9190821691267274 -0.9190821691267274 -0.898996794300255 -0.898996794300255 -0.898996794300255 -0.898996794300255 -0.8648151482455866 -0.8648151482455866 -0.8648151482455866 
-0.8648151482455866 -0.8171437668764981 -0.8171437668764981 -0.8171437668764981 -0.8171437668764981 -0.7568398627285716 -0.7568398627285716 -0.7568398627285716 -0.7568398627285716 
-0.6849730539623257 -0.6849730539623257 -0.6849730539623257 -0.6849730539623257 -0.6027799143080588 -0.6027799143080588 -0.6027799143080588 -0.6027799143080588 -0.5116026974512666 
-0.5116026974512666 -0.5116026974512666 -0.5116026974512666 -0.4128243236096688 -0.4128243236096688 -0.4128243236096688 -0.4128243236096688 -0.3078173465783968 -0.3078173465783968 
-0.3078173465783968 -0.3078173465783968 -0.1979233316711428 -0.1979233316711428 -0.1979233316711428 -0.1979233316711428 -0.08447339586253845 -0.08447339586253845 -0.08447339586253845 
-0.08447339586253845 0.03115362454742281 0.03115362454742281 0.03115362454742281 0.03115362454742281 0.147453344949186 0.147453344949186 0.147453344949186 0.147453344949186 
0.2627277640628144 0.2627277640628144 0.2627277640628144 0.2627277640628144 0.375058367677313 0.375058367677313 0.375058367677313 0.375058367677313 0.4823421957972534 
0.4823421957972534 0.4823421957972534 0.4823421957972534 0.5823940784919296 0.5823940784919296 0.5823940784919296 0.5823940784919296 0.6730933681776672 0.6730933681776672 
0.6730933681776672 0.6730933681776672 0.7525484807230148 0.7525484807230148 0.7525484807230148 0.7525484807230148 0.8192039543842278 0.8192039543842278 0.8192039543842278 
0.8192039543842278 0.8720020835081888 0.8720020835081888 0.8720020835081888 0.8720020835081888 0.9100225214189936 0.9100225214189936 0.9100225214189936 0.9100225214189936 
0.9338174093119624 0.9338174093119624 0.9338174093119624 0.9338174093119624 0.9400308301116835 0.9400308301116835 0.9400308301116835 0.9400308301116835 0.9409277090905653 
0.9409277090905653 0.9409277090905653 0.9409277090905653 0.893915551853856 0.893915551853856 0.893915551853856 0.893915551853856 0.8591661983794588 0.8591661983794588 
0.8591661983794588 0.8591661983794588 0.8254590429482512 0.8254590429482512 0.8254590429482512 0.8254590429482512 0.7668941397324618 0.7668941397324618 0.7668941397324618 
0.7668941397324618 0.6938547487637315 0.6938547487637315 0.6938547487637315 0.6938547487637315 0.6097829699411335 0.6097829699411335 0.6097829699411335 0.6097829699411335 
0.5167135430586616 0.5167135430586616 0.5167135430586616 0.5167135430586616 0.41580507009933 0.41580507009933 0.41580507009933 0.41580507009933 0.3074040306109083 
0.3074040306109083 0.3074040306109083 0.3074040306109083 0.1920938097921102 0.1920938097921102 0.1920938097921102 0.1920938097921102 0.07198997484202185 0.07198997484202185 
0.07198997484202185 0.07198997484202185 -0.0492577953469596 -0.0492577953469596 -0.0492577953469596 -0.0492577953469596 -0.1679493617673221 -0.1679493617673221 -0.1679493617673221 
-0.1679493617673221 -0.2818117584363406 -0.2818117584363406 -0.2818117584363406 -0.2818117584363406 -0.3900932471327198 -0.3900932471327198 -0.3900932471327198 -0.3900932471327198 
-0.4924756122673151 -0.4924756122673151 -0.4924756122673151 -0.4924756122673151 -0.5880471638874671 -0.5880471638874671 -0.5880471638874671 -0.5880471638874671 -0.6751541529654799 
-0.6751541529654799 -0.6751541529654799 -0.6751541529654799 -0.7519203484016357 -0.7519203484016357 -0.7519203484016357 -0.7519203484016357 -0.8167697679450368 -0.8167697679450368 
-0.8167697679450368 -0.8167697679450368 -0.8685904870482615 -0.8685904870482615 -0.8685904870482615 -0.8685904870482615 -0.9066264486642959 -0.9066264486642959 -0.9066264486642959 
-0.9066264486642959 -0.9303510997529033 -0.9303510997529033 -0.9303510997529033 -0.9303510997529033 -0.9393779415338994 -0.9393779415338994 -0.9393779415338994 -0.9393779415338994 
-0.9336630299839297 -0.9336630299839297 -0.9336630299839297 -0.9336630299839297 -0.9132824753863853 -0.9132824753863853 -0.9132824753863853 -0.9132824753863853 -0.8785703865433796 
-0.8785703865433796 -0.8785703865433796 -0.8785703865433796 -0.8301501565080212 -0.8301501565080212 -0.8301501565080212 -0.8301501565080212 -0.7688949079729133 -0.7688949079729133 
-0.7688949079729133 -0.7688949079729133 -0.6958899170893451 -0.6958899170893451 -0.6958899170893451 -0.6958899170893451 -0.6123920481861527 -0.6123920481861527 -0.6123920481861527 
-0.6123920481861527 -0.5197657876348334 -0.5197657876348334 -0.5197657876348334 -0.5197657876348334 -0.4194173885018214 -0.4194173885018214 -0.4194173885018214 -0.4194173885018214 
-0.3127423902388042 -0.3127423902388042 -0.3127423902388042 -0.3127423902388042 -0.201104467463854 -0.201104467463854 -0.201104467463854 -0.201104467463854 -0.08585605094965089 
-0.08585605094965089 -0.08585605094965089 -0.08585605094965089 0.03160266124842889 0.03160266124842889 0.03160266124842889 0.03160266124842889 0.1497445851324915 0.1497445851324915 
0.1497445851324915 0.1497445851324915 0.2668463312434523 0.2668463312434523 0.2668463312434523 0.2668463312434523 0.3809604434715304 0.3809604434715304 0.3809604434715304 
0.3809604434715304 0.4899515541660061 0.4899515541660061 0.4899515541660061 0.4899515541660061 0.5915998821704177 0.5915998821704177 0.5915998821704177 0.5915998821704177 
0.6837501188641919 0.6837501188641919 0.6837501188641919 0.6837501188641919 0.7644787673299591 0.7644787673299591 0.7644787673299591 0.7644787673299591 0.832203214690858 
0.832203214690858 0.832203214690858 0.832203214690858 0.8858468878881327 0.8858468878881327 0.8858468878881327 0.8858468878881327 0.9244735553818889 0.9244735553818889 
0.9244735553818889 0.9244735553818889 0.9486468432410727 0.9486468432410727 0.9486468432410727 0.9486468432410727 0.9549504335454795 0.9549504335454795 0.9549504335454795 
0.9549504335454795 0.9557179729033365 0.9557179729033365 0.9557179729033365 0.9557179729033365 0.9081141323731342 0.9081141323731342 0.9081141323731342 0.9081141323731342 
0.8595986801730532 0.8595986801730532 0.8595986801730532 0.8595986801730532 0.8259047312468328 0.8259047312468328 0.8259047312468328 0.8259047312468328 0.767340728712139 
0.767340728712139 0.767340728712139 0.767340728712139 0.694269135935768 0.694269135935768 0.694269135935768 0.694269135935768 0.6101141168065605 0.6101141168065605 
0.6101141168065605 0.6101141168065605 0.5169381534535729 0.5169381534535729 0.5169381534535729 0.5169381534535729 0.4160008109498469 0.4160008109498469 0.4160008109498469 
0.4160008109498469 0.3077305750440306 0.3077305750440306 0.3077305750440306 0.3077305750440306 0.1926564184854506 0.1926564184854506 0.1926564184854506 0.1926564184854506 
0.07272365839902835 0.07272365839902835 0.07272365839902835 0.07272365839902835 -0.04855255732419045 -0.04855255732419045 -0.04855255732419045 -0.04855255732419045 -0.1674600459986418 
-0.1674600459986418 -0.1674600459986418 -0.1674600459986418 -0.2816026143946809 -0.2816026143946809 -0.2816026143946809 -0.2816026143946809 -0.3901124573146888 -0.3901124573146888 
-0.3901124573146888 -0.3901124573146888 -0.4926336242493321 -0.4926336242493321 -0.4926336242493321 -0.4926336242493321 -0.5882790930476366 -0.5882790930476366 -0.5882790930476366 
-0.5882790930476366 -0.6754324987210889 -0.6754324987210889 -0.6754324987210889 -0.6754324987210889 -0.7522381297717274 -0.7522381297717274 -0.7522381297717274 -0.7522381297717274 
-0.8171239213088339 -0.8171239213088339 -0.8171239213088339 -0.8171239213088339 -0.8689762529439543 -0.8689762529439543 -0.8689762529439543 -0.8689762529439543 -0.9070369718468825 
-0.9070369718468825 -0.9070369718468825 -0.9070369718468825 -0.9307733304870008 -0.9307733304870008 -0.9307733304870008 -0.9307733304870008 -0.9398062386394941 -0.9398062386394941 
-0.9398062386394941 -0.9398062386394941 -0.934101323107746 -0.934101323107746 -0.934101323107746 -0.934101323107746 -0.913728146865311 -0.913728146865311 -0.913728146865311 
-0.913728146865311 -0.8790102387464752 -0.8790102387464752 -0.8790102387464752 -0.8790102387464752 -0.8305749624755359 -0.8305749624755359 -0.8305749624755359 -0.8305749624755359 
-0.7692964405145727 -0.7692964405145727 -0.7692964405145727 -0.7692964405145727 -0.6962600145194113 -0.6962600145194113 -0.6962600145194113 -0.6962600145194113 -0.6127233427932721 
-0.6127233427932721 -0.6127233427932721 -0.6127233427932721 -0.520052213758198 -0.520052213758198 -0.520052213758198 -0.520052213758198 -0.419654702800479 -0.419654702800479 
-0.419654702800479 -0.419654702800479 -0.3129280889216775 -0.3129280889216775 -0.3129280889216775 -0.3129280889216775 -0.2012375642836425 -0.2012375642836425 -0.2012375642836425 
-0.2012375642836425 -0.08593658368902364 -0.08593658368902364 -0.08593658368902364 -0.08593658368902364 0.03157421971996439 0.03157421971996439 0.03157421971996439 0.03157421971996439 
0.1497679209227309 0.1497679209227309 0.1497679209227309 0.1497679209227309 0.2669216769772972 0.2669216769772972 0.2669216769772972 0.2669216769772972 0.3810885916484995 
0.3810885916484995 0.3810885916484995 0.3810885916484995 0.4901334250963808 0.4901334250963808 0.4901334250963808 0.4901334250963808 0.5918357468372718 0.5918357468372718 
0.5918357468372718 0.5918357468372718 0.6840386823161564 0.6840386823161564 0.6840386823161564 0.6840386823161564 0.7648163601057594 0.7648163601057594 0.7648163601057594 
0.7648163601057594 0.8325833543180928 0.8325833543180928 0.8325833543180928 0.8325833543180928 0.8862605903352537 0.8862605903352537 0.8862605903352537 0.8862605903352537 
0.9249106174376434 0.9249106174376434 0.9249106174376434 0.9249106174376434 0.9490865555168575 0.9490865555168575 0.9490865555168575 0.9490865555168575 0.955394435480387 
0.955394435480387 0.955394435480387 0.955394435480387 0.9561312563401861 0.9561312563401861 0.9561312563401861 0.9561312563401861 0.9085355308103323 0.9085355308103323 
0.9085355308103323 0.9085355308103323 0.846760410276844 0.846760410276844 0.846760410276844 0.846760410276844 0.8135623950032237 0.8135623950032237 0.8135623950032237 
0.8135623950032237 0.755865573423697 0.755865573423697 0.755865573423697 0.755865573423697 0.6838230421134531 0.6838230421134531 0.6838230421134531 0.6838230421134531 
0.6007147085856466 0.6007147085856466 0.6007147085856466 0.6007147085856466 0.5085745775071566 0.5085745775071566 0.5085745775071566 0.5085745775071566 0.4088501684389599 
0.4088501684389599 0.4088501684389599 0.4088501684389599 0.3022800139021894 0.3022800139021894 0.3022800139021894 0.3022800139021894 0.1895173874251228 0.1895173874251228 
0.1895173874251228 0.1895173874251228 0.0722442047716178 0.0722442047716178 0.0722442047716178 0.0722442047716178 -0.04652381109000973 -0.04652381109000973 -0.04652381109000973 
-0.04652381109000973 -0.1634450288421185 -0.1634450288421185 -0.1634450288421185 -0.1634450288421185 -0.2761440798893434 -0.2761440798893434 -0.2761440798893434 -0.2761440798893434 
-0.3835101432434041 -0.3835101432434041 -0.3835101432434041 -0.3835101432434041 -0.48492410188278 -0.48492410188278 -0.48492410188278 -0.48492410188278 -0.5793859019990089 
-0.5793859019990089 -0.5793859019990089 -0.5793859019990089 -0.6653210573359614 -0.6653210573359614 -0.6653210573359614 -0.6653210573359614 -0.740979632435816 -0.740979632435816 
-0.740979632435816 -0.740979632435816 -0.8048784315510014 -0.8048784315510014 -0.8048784315510014 -0.8048784315510014 -0.8559490715285536 -0.8559490715285536 -0.8559490715285536 
-0.8559490715285536 -0.8934482931198067 -0.8934482931198067 -0.8934482931198067 -0.8934482931198067 -0.9168484402708851 -0.9168484402708851 -0.9168484402708851 -0.9168484402708851 
-0.9257910572155398 -0.9257910572155398 -0.9257910572155398 -0.9257910572155398 -0.9201652019712163 -0.9201652019712163 -0.9201652019712163 -0.9201652019712163 -0.9000848262700938 
-0.9000848262700938 -0.9000848262700938 -0.9000848262700938 -0.8658874430966719 -0.8658874430966719 -0.8658874430966719 -0.8658874430966719 -0.8181827490324191 -0.8181827490324191 
-0.8181827490324191 -0.8181827490324191 -0.7578254651495301 -0.7578254651495301 -0.7578254651495301 -0.7578254651495301 -0.6858847999058386 -0.6858847999058386 -0.6858847999058386 
-0.6858847999058386 -0.6035990340242876 -0.6035990340242876 -0.6035990340242876 -0.6035990340242876 -0.5123139894449216 -0.5123139894449216 -0.5123139894449216 -0.5123139894449216 
-0.413417434621497 -0.413417434621497 -0.413417434621497 -0.413417434621497 -0.3082866733439976 -0.3082866733439976 -0.3082866733439976 -0.3082866733439976 -0.1982673092607146 
-0.1982673092607146 -0.1982673092607146 -0.1982673092607146 -0.08469304570931036 -0.08469304570931036 -0.08469304570931036 -0.08469304570931036 0.03105648680072504 0.03105648680072504 
0.03105648680072504 0.03105648680072504 0.147477899589538 0.147477899589538 0.147477899589538 0.147477899589538 0.2628753521474194 0.2628753521474194 0.2628753521474194 
0.2628753521474194 0.3753325224012863 0.3753325224012863 0.3753325224012863 0.3753325224012863 0.4827473387741654 0.4827473387741654 0.4827473387741654 0.4827473387741654 
0.582933189125118 0.582933189125118 0.582933189125118 0.582933189125118 0.6737652563861258 0.6737652563861258 0.6737652563861258 0.6737652563861258 0.7533454237850519 
0.7533454237850519 0.7533454237850519 0.7533454237850519 0.8201104831370719 0.8201104831370719 0.8201104831370719 0.8201104831370719 0.8729958884027649 0.8729958884027649 
0.8729958884027649 0.8729958884027649 0.9110789902382106 0.9110789902382106 0.9110789902382106 0.9110789902382106 0.9349097155615569 0.9349097155615569 0.9349097155615569 
0.9349097155615569 0.9411494562699342 0.9411494562699342 0.9411494562699342 0.9411494562699342 0.9419860523124864 0.9419860523124864 0.9419860523124864 0.9419860523124864 
0.8949752648180758 0.8949752648180758 0.8949752648180758 0.8949752648180758 0.8206985426262963 0.8206985426262963 0.8206985426262963 0.8206985426262963 0.7885100239458664 
0.7885100239458664 0.7885100239458664 0.7885100239458664 0.7325739722332948 0.7325739722332948 0.7325739722332948 0.7325739722332948 0.6626785858525213 0.6626785858525213 
0.6626785858525213 0.6626785858525213 0.5819039317615358 0.5819039317615358 0.5819039317615358 0.5819039317615358 0.4921767958841357 0.4921767958841357 0.4921767958841357 
0.4921767958841357 0.3950740567265048 0.3950740567265048 0.3950740567265048 0.3950740567265048 0.291678851473096 0.291678851473096 0.291678851473096 0.291678851473096 
0.1828814584683943 0.1828814584683943 0.1828814584683943 0.1828814584683943 0.07016571022542534 0.07016571022542534 0.07016571022542534 0.07016571022542534 -0.04403361639235442 
-0.04403361639235442 -0.04403361639235442 -0.04403361639235442 -0.1569293948959511 -0.1569293948959511 -0.1569293948959511 -0.1569293948959511 -0.2663157719226569 -0.2663157719226569 
-0.2663157719226569 -0.2663157719226569 -0.3708676479798408 -0.3708676479798408 -0.3708676479798408 -0.3708676479798408 -0.4696483913734342 -0.4696483913734342 -0.4696483913734342 
-0.4696483913734342 -0.5614953609674075 -0.5614953609674075 -0.5614953609674075 -0.5614953609674075 -0.6448782648563269 -0.6448782648563269 -0.6448782648563269 -0.6448782648563269 
-0.7181937956800178 -0.7181937956800178 -0.7181937956800178 -0.7181937956800178 -0.7800909722941644 -0.7800909722941644 -0.7800909722941644 -0.7800909722941644 -0.8295725158757904 
-0.8295725158757904 -0.8295725158757904 -0.8295725158757904 -0.8659207396709403 -0.8659207396709403 -0.8659207396709403 -0.8659207396709403 -0.8886120203207111 -0.8886120203207111 
-0.8886120203207111 -0.8886120203207111 -0.897301573686426 -0.897301573686426 -0.897301573686426 -0.897301573686426 -0.891861961380136 -0.891861961380136 -0.891861961380136 
-0.891861961380136 -0.8723977781076139 -0.8723977781076139 -0.8723977781076139 -0.8723977781076139 -0.8392547372577377 -0.8392547372577377 -0.8392547372577377 -0.8392547372577377 
-0.7930228492505332 -0.7930228492505332 -0.7930228492505332 -0.7930228492505332 -0.7345280802458698 -0.7345280802458698 -0.7345280802458698 -0.7345280802458698 -0.664805807608678 