Title = Result/Post/Linear_Advection_2D/FVM/MLP_u1_Least_Square/Sine_Wave_2D/Quad50/
FileType = Solution
Variables = q
Zone T = Result/Post/Linear_Advection_2D/FVM/MLP_u1_Least_Square/Sine_Wave_2D/Quad50/
ZoneType = FETriangle
Nodes = 10000
Elements = 5000
DataPacking = Block
StrandID = 21
SolutionTime = 2
0.008770723136062418 0.008770723136062418 0.008770723136062418 0.008770723136062418 0.01638395403349137 0.01638395403349137 0.01638395403349137 0.01638395403349137 0.02691171431774627 0.02691171431774627 
0.02691171431774627 0.02691171431774627 0.03773844598478172 0.03773844598478172 0.03773844598478172 0.03773844598478172 0.04812465891751593 0.04812465891751593 0.04812465891751593 
0.04812465891751593 0.05779319733966146 0.05779319733966146 0.05779319733966146 0.05779319733966146 0.06656009885924832 0.06656009885924832 0.06656009885924832 0.06656009885924832 
0.07425848125206362 0.07425848125206362 0.07425848125206362 0.07425848125206362 0.08074701007837005 0.08074701007837005 0.08074701007837005 0.08074701007837005 0.08591376488740124 
0.08591376488740124 0.08591376488740124 0.08591376488740124 0.08967654248291586 0.08967654248291586 0.08967654248291586 0.08967654248291586 0.09197323703117566 0.09197323703117566 
0.09197323703117566 0.09197323703117566 0.09279131045651985 0.09279131045651985 0.09279131045651985 0.09279131045651985 0.09216679279887957 0.09216679279887957 0.09216679279887957 
0.09216679279887957 0.09010277290233294 0.09010277290233294 0.09010277290233294 0.09010277290233294 0.08662022645956564 0.08662022645956564 0.08662022645956564 0.08662022645956564 
0.08178103037895315 0.08178103037895315 0.08178103037895315 0.08178103037895315 0.07566154473579231 0.07566154473579231 0.07566154473579231 0.07566154473579231 0.06835468968545136 
0.06835468968545136 0.06835468968545136 0.06835468968545136 0.0599664312098659 0.0599664312098659 0.0599664312098659 0.0599664312098659 0.0506335401112798 0.0506335401112798 
0.0506335401112798 0.0506335401112798 0.04049988076397339 0.04049988076397339 0.04049988076397339 0.04049988076397339 0.02975826573627434 0.02975826573627434 0.02975826573627434 
0.02975826573627434 0.01854469643298115 0.01854469643298115 0.01854469643298115 0.01854469643298115 0.006655666395119532 0.006655666395119532 0.006655666395119532 0.006655666395119532 
-0.004955433827760689 -0.004955433827760689 -0.004955433827760689 -0.004955433827760689 -0.01629904126382403 -0.01629904126382403 -0.01629904126382403 -0.01629904126382403 -0.02760912739525656 
-0.02760912739525656 -0.02760912739525656 -0.02760912739525656 -0.03850957133088461 -0.03850957133088461 -0.03850957133088461 -0.03850957133088461 -0.04877760369556979 -0.04877760369556979 
-0.04877760369556979 -0.04877760369556979 -0.05828075382817386 -0.05828075382817386 -0.05828075382817386 -0.05828075382817386 -0.0668640128874748 -0.0668640128874748 -0.0668640128874748 
-0.0668640128874748 -0.07438971939763721 -0.07438971939763721 -0.07438971939763721 -0.07438971939763721 -0.08073885280244676 -0.08073885280244676 -0.08073885280244676 -0.08073885280244676 
-0.08581286093456916 -0.08581286093456916 -0.08581286093456916 -0.08581286093456916 -0.08953184177981768 -0.08953184177981768 -0.08953184177981768 -0.08953184177981768 -0.09182518572964696 
-0.09182518572964696 -0.09182518572964696 -0.09182518572964696 -0.09266533350765578 -0.09266533350765578 -0.09266533350765578 -0.09266533350765578 -0.09207331426084332 -0.09207331426084332 
-0.09207331426084332 -0.09207331426084332 -0.09004420748287396 -0.09004420748287396 -0.09004420748287396 -0.09004420748287396 -0.08659686397205631 -0.08659686397205631 -0.08659686397205631 
-0.08659686397205631 -0.08180031752137873 -0.08180031752137873 -0.08180031752137873 -0.08180031752137873 -0.07574564202463316 -0.07574564202463316 -0.07574564202463316 -0.07574564202463316 
-0.06854245915979398 -0.06854245915979398 -0.06854245915979398 -0.06854245915979398 -0.06031575621968736 -0.06031575621968736 -0.06031575621968736 -0.06031575621968736 -0.05117980029859846 
-0.05117980029859846 -0.05117980029859846 -0.05117980029859846 -0.04137792302951487 -0.04137792302951487 -0.04137792302951487 -0.04137792302951487 -0.03057744389494518 -0.03057744389494518 
-0.03057744389494518 -0.03057744389494518 -0.02122030969290337 -0.02122030969290337 -0.02122030969290337 -0.02122030969290337 -0.002240379498581557 -0.002240379498581557 -0.002240379498581557 
-0.002240379498581557 0.01592325742420049 0.01592325742420049 0.01592325742420049 0.01592325742420049 0.02815333617310441 0.02815333617310441 0.02815333617310441 0.02815333617310441 
0.04650410031619455 0.04650410031619455 0.04650410031619455 0.04650410031619455 0.06586928327465294 0.06586928327465294 0.06586928327465294 0.06586928327465294 0.0845870950983226 
0.0845870950983226 0.0845870950983226 0.0845870950983226 0.1020039513468152 0.1020039513468152 0.1020039513468152 0.1020039513468152 0.1177566179727673 0.1177566179727673 
0.1177566179727673 0.1177566179727673 0.1315567903948693 0.1315567903948693 0.1315567903948693 0.1315567903948693 0.1431683638804546 0.1431683638804546 0.1431683638804546 
0.1431683638804546 0.1524046123491579 0.1524046123491579 0.1524046123491579 0.1524046123491579 0.1591309181184239 0.1591309181184239 0.1591309181184239 0.1591309181184239 
0.1632610360015801 0.1632610360015801 0.1632610360015801 0.1632610360015801 0.1647623725166721 0.1647623725166721 0.1647623725166721 0.1647623725166721 0.1636557063068745 
0.1636557063068745 0.1636557063068745 0.1636557063068745 0.1599841198512147 0.1599841198512147 0.1599841198512147 0.1599841198512147 0.1538121046514906 0.1538121046514906 
0.1538121046514906 0.1538121046514906 0.1452365447884821 0.1452365447884821 0.1452365447884821 0.1452365447884821 0.1343866804581191 0.1343866804581191 0.1343866804581191 
0.1343866804581191 0.121420083170139 0.121420083170139 0.121420083170139 0.121420083170139 0.1065229025012107 0.1065229025012107 0.1065229025012107 0.1065229025012107 
0.08992516598224662 0.08992516598224662 0.08992516598224662 0.08992516598224662 0.07188594554129897 0.07188594554129897 0.07188594554129897 0.07188594554129897 0.05269114499693696 
0.05269114499693696 0.05269114499693696 0.05269114499693696 0.03268251782415208 0.03268251782415208 0.03268251782415208 0.03268251782415208 0.01214491901458722 0.01214491901458722 
0.01214491901458722 0.01214491901458722 -0.008479096100123269 -0.008479096100123269 -0.008479096100123269 -0.008479096100123269 -0.02890105394059675 -0.02890105394059675 -0.02890105394059675 
-0.02890105394059675 -0.04888613953041897 -0.04888613953041897 -0.04888613953041897 -0.04888613953041897 -0.06812215035793122 -0.06812215035793122 -0.06812215035793122 -0.06812215035793122 
-0.08630081038163342 -0.08630081038163342 -0.08630081038163342 -0.08630081038163342 -0.1031411979865534 -0.1031411979865534 -0.1031411979865534 -0.1031411979865534 -0.1183781540025753 
-0.1183781540025753 -0.1183781540025753 -0.1183781540025753 -0.1317641037244268 -0.1317641037244268 -0.1317641037244268 -0.1317641037244268 -0.1430794690343866 -0.1430794690343866 
-0.1430794690343866 -0.1430794690343866 -0.1521395573169078 -0.1521395573169078 -0.1521395573169078 -0.1521395573169078 -0.1587975534229409 -0.1587975534229409 -0.1587975534229409 
-0.1587975534229409 -0.1629425545088809 -0.1629425545088809 -0.1629425545088809 -0.1629425545088809 -0.1645097767406853 -0.1645097767406853 -0.1645097767406853 -0.1645097767406853 
-0.1634895185750438 -0.1634895185750438 -0.1634895185750438 -0.1634895185750438 -0.1599041612865465 -0.1599041612865465 -0.1599041612865465 -0.1599041612865465 -0.1538132026601241 
-0.1538132026601241 -0.1538132026601241 -0.1538132026601241 -0.1453252841773464 -0.1453252841773464 -0.1453252841773464 -0.1453252841773464 -0.1345972259308515 -0.1345972259308515 
-0.1345972259308515 -0.1345972259308515 -0.1218169465320947 -0.1218169465320947 -0.1218169465320947 -0.1218169465320947 -0.1072144941733492 -0.1072144941733492 -0.1072144941733492 
-0.1072144941733492 -0.09095807159652045 -0.09095807159652045 -0.09095807159652045 -0.09095807159652045 -0.07358701787924515 -0.07358701787924515 -0.07358701787924515 -0.07358701787924515 
-0.0540398074779706 -0.0540398074779706 -0.0540398074779706 -0.0540398074779706 -0.0380543445041744 -0.0380543445041744 -0.0380543445041744 -0.0380543445041744 -0.005045407538884317 
-0.005045407538884317 -0.005045407538884317 -0.005045407538884317 0.02671769580363884 0.02671769580363884 0.02671769580363884 0.02671769580363884 0.04661515790768253 0.04661515790768253 
0.04661515790768253 0.04661515790768253 0.07626692595155188 0.07626692595155188 0.07626692595155188 0.07626692595155188 0.1076854293455373 0.1076854293455373 0.1076854293455373 
0.1076854293455373 0.1382659835650271 0.1382659835650271 0.1382659835650271 0.1382659835650271 0.1669032789277071 0.1669032789277071 0.1669032789277071 0.1669032789277071 
0.1928968123872224 0.1928968123872224 0.1928968123872224 0.1928968123872224 0.2157042640532101 0.2157042640532101 0.2157042640532101 0.2157042640532101 0.2348981652171339 
0.2348981652171339 0.2348981652171339 0.2348981652171339 0.2501575734853682 0.2501575734853682 0.2501575734853682 0.2501575734853682 0.2612628464619609 0.2612628464619609 
0.2612628464619609 0.2612628464619609 0.2680861021886274 0.2680861021886274 0.2680861021886274 0.2680861021886274 0.2705842293034577 0.2705842293034577 0.2705842293034577 
0.2705842293034577 0.2687858003571771 0.2687858003571771 0.2687858003571771 0.2687858003571771 0.2627683687177924 0.2627683687177924 0.2627683687177924 0.2627683687177924 
0.2526498276257951 0.2526498276257951 0.2526498276257951 0.2526498276257951 0.2385921681942188 0.2385921681942188 0.2385921681942188 0.2385921681942188 0.2208023653727281 
0.2208023653727281 0.2208023653727281 0.2208023653727281 0.1995363413995326 0.1995363413995326 0.1995363413995326 0.1995363413995326 0.1751007865878653 0.1751007865878653 
0.1751007865878653 0.1751007865878653 0.1478653207352735 0.1478653207352735 0.1478653207352735 0.1478653207352735 0.1182576629976109 0.1182576629976109 0.1182576629976109 
0.1182576629976109 0.08675304968826394 0.08675304968826394 0.08675304968826394 0.08675304968826394 0.05388810091926959 0.05388810091926959 0.05388810091926959 0.05388810091926959 
0.02022619663805242 0.02022619663805242 0.02022619663805242 0.02022619663805242 -0.01366705544795293 -0.01366705544795293 -0.01366705544795293 -0.01366705544795293 -0.04727077129079929 
-0.04727077129079929 -0.04727077129079929 -0.04727077129079929 -0.08009351630690807 -0.08009351630690807 -0.08009351630690807 -0.08009351630690807 -0.1116545071862705 -0.1116545071862705 
-0.1116545071862705 -0.1116545071862705 -0.1414836632849961 -0.1414836632849961 -0.1414836632849961 -0.1414836632849961 -0.1691289584683572 -0.1691289584683572 -0.1691289584683572 
-0.1691289584683572 -0.1941569330851787 -0.1941569330851787 -0.1941569330851787 -0.1941569330851787 -0.2161607606857976 -0.2161607606857976 -0.2161607606857976 -0.2161607606857976 
-0.2347750643723404 -0.2347750643723404 -0.2347750643723404 -0.2347750643723404 -0.2496904441950935 -0.2496904441950935 -0.2496904441950935 -0.2496904441950935 -0.2606620600437434 
-0.2606620600437434 -0.2606620600437434 -0.2606620600437434 -0.2675118490412226 -0.2675118490412226 -0.2675118490412226 -0.2675118490412226 -0.2701347822949592 -0.2701347822949592 
-0.2701347822949592 -0.2701347822949592 -0.2685012664746027 -0.2685012664746027 -0.2685012664746027 -0.2685012664746027 -0.2626486380274041 -0.2626486380274041 -0.2626486380274041 
-0.2626486380274041 -0.2526818004902949 -0.2526818004902949 -0.2526818004902949 -0.2526818004902949 -0.2387797608924682 -0.2387797608924682 -0.2387797608924682 -0.2387797608924682 
-0.2211929788434864 -0.2211929788434864 -0.2211929788434864 -0.2211929788434864 -0.2002267169394758 -0.2002267169394758 -0.2002267169394758 -0.2002267169394758 -0.1762573632849059 
-0.1762573632849059 -0.1762573632849059 -0.1762573632849059 -0.1495694558234494 -0.1495694558234494 -0.1495694558234494 -0.1495694558234494 -0.1210040517679455 -0.1210040517679455 
-0.1210040517679455 -0.1210040517679455 -0.08903957444136887 -0.08903957444136887 -0.08903957444136887 -0.08903957444136887 -0.06220441577595297 -0.06220441577595297 -0.06220441577595297 
-0.06220441577595297 -0.006991609941548002 -0.006991609941548002 -0.006991609941548002 -0.006991609941548002 0.03683082225829427 0.03683082225829427 0.03683082225829427 0.03683082225829427 
0.06558802168172276 0.06558802168172276 0.06558802168172276 0.06558802168172276 0.1077347167164877 0.1077347167164877 0.1077347167164877 0.1077347167164877 0.1519247965895671 
0.1519247965895671 0.1519247965895671 0.1519247965895671 0.1948585935314592 0.1948585935314592 0.1948585935314592 0.1948585935314592 0.2351195365485198 0.2351195365485198 
0.2351195365485198 0.2351195365485198 0.2717445990658968 0.2717445990658968 0.2717445990658968 0.2717445990658968 0.3039479365616754 0.3039479365616754 0.3039479365616754 
0.3039479365616754 0.3310911752141437 0.3310911752141437 0.3310911752141437 0.3310911752141437 0.3526911033639646 0.3526911033639646 0.3526911033639646 0.3526911033639646 
0.3684201020552025 0.3684201020552025 0.3684201020552025 0.3684201020552025 0.3780942955911644 0.3780942955911644 0.3780942955911644 0.3780942955911644 0.3816547014386691 
0.3816547014386691 0.3816547014386691 0.3816547014386691 0.3791423520400197 0.3791423520400197 0.3791423520400197 0.3791423520400197 0.3706721185734796 0.3706721185734796 
0.3706721185734796 0.3706721185734796 0.3564186065885365 0.3564186065885365 0.3564186065885365 0.3564186065885365 0.3366139989065592 0.3366139989065592 0.3366139989065592 
0.3366139989065592 0.3115527795119881 0.3115527795119881 0.3115527795119881 0.3115527795119881 0.2815982012005664 0.2815982012005664 0.2815982012005664 0.2815982012005664 
0.2471866063137656 0.2471866063137656 0.2471866063137656 0.2471866063137656 0.2088354450539878 0.2088354450539878 0.2088354450539878 0.2088354450539878 0.167142355527177 
0.167142355527177 0.167142355527177 0.167142355527177 0.1227744760132205 0.1227744760132205 0.1227744760132205 0.1227744760132205 0.07646420789206813 0.07646420789206813 
0.07646420789206813 0.07646420789206813 0.02899083625577867 0.02899083625577867 0.02899083625577867 0.02899083625577867 -0.01885704802618381 -0.01885704802618381 -0.01885704802618381 
-0.01885704802618381 -0.06631885597199016 -0.06631885597199016 -0.06631885597199016 -0.06631885597199016 -0.1126731584097002 -0.1126731584097002 -0.1126731584097002 -0.1126731584097002 
-0.1572323240404498 -0.1572323240404498 -0.1572323240404498 -0.1572323240404498 -0.1993384699585303 -0.1993384699585303 -0.1993384699585303 -0.1993384699585303 -0.2383584619241781 
-0.2383584619241781 -0.2383584619241781 -0.2383584619241781 -0.273684402946284 -0.273684402946284 -0.273684402946284 -0.273684402946284 -0.3047448262687736 -0.3047448262687736 
-0.3047448262687736 -0.3047448262687736 -0.3310247797336212 -0.3310247797336212 -0.3310247797336212 -0.3310247797336212 -0.3520871480423969 -0.3520871480423969 -0.3520871480423969 
-0.3520871480423969 -0.3675864069600482 -0.3675864069600482 -0.3675864069600482 -0.3675864069600482 -0.3772744014281455 -0.3772744014281455 -0.3772744014281455 -0.3772744014281455 
-0.3810041228139002 -0.3810041228139002 -0.3810041228139002 -0.3810041228139002 -0.3787297154110433 -0.3787297154110433 -0.3787297154110433 -0.3787297154110433 -0.3705027302958149 
-0.3705027302958149 -0.3705027302958149 -0.3705027302958149 -0.3564734079127734 -0.3564734079127734 -0.3564734079127734 -0.3564734079127734 -0.3368925859025855 -0.3368925859025855 
-0.3368925859025855 -0.3368925859025855 -0.3121107493144432 -0.3121107493144432 -0.3121107493144432 -0.3121107493144432 -0.282555881159592 -0.282555881159592 -0.282555881159592 
-0.282555881159592 -0.2487572282830019 -0.2487572282830019 -0.2487572282830019 -0.2487572282830019 -0.2111227133765582 -0.2111227133765582 -0.2111227133765582 -0.2111227133765582 
-0.1708078930818522 -0.1708078930818522 -0.1708078930818522 -0.1708078930818522 -0.125819189942653 -0.125819189942653 -0.125819189942653 -0.125819189942653 -0.0875986424876469 
-0.0875986424876469 -0.0875986424876469 -0.0875986424876469 -0.01054045661528428 -0.01054045661528428 -0.01054045661528428 -0.01054045661528428 0.04670064225319574 0.04670064225319574 
0.04670064225319574 0.04670064225319574 0.08382799887993626 0.08382799887993626 0.08382799887993626 0.08382799887993626 0.1380808905450541 0.1380808905450541 0.1380808905450541 
0.1380808905450541 0.1948187446217055 0.1948187446217055 0.1948187446217055 0.1948187446217055 0.2498400790237685 0.2498400790237685 0.2498400790237685 0.2498400790237685 
0.3013809810456831 0.3013809810456831 0.3013809810456831 0.3013809810456831 0.3482633248985793 0.3482633248985793 0.3482633248985793 0.3482633248985793 0.3895112259670822 
0.3895112259670822 0.3895112259670822 0.3895112259670822 0.424311669966172 0.424311669966172 0.424311669966172 0.424311669966172 0.4520342566433402 0.4520342566433402 
0.4520342566433402 0.4520342566433402 0.472243952686406 0.472243952686406 0.472243952686406 0.472243952686406 0.4846934221136568 0.4846934221136568 0.4846934221136568 
0.4846934221136568 0.4892995960856684 0.4892995960856684 0.4892995960856684 0.4892995960856684 0.4861111610811134 0.4861111610811134 0.4861111610811134 0.4861111610811134 
0.4752766208025092 0.4752766208025092 0.4752766208025092 0.4752766208025092 0.4570239377264863 0.4570239377264863 0.4570239377264863 0.4570239377264863 0.4316559635298794 
0.4316559635298794 0.4316559635298794 0.4316559635298794 0.399556086784879 0.399556086784879 0.399556086784879 0.399556086784879 0.361196924545039 0.361196924545039 
0.361196924545039 0.361196924545039 0.3171454287904422 0.3171454287904422 0.3171454287904422 0.3171454287904422 0.2680646199552155 0.2680646199552155 0.2680646199552155 
0.2680646199552155 0.2147101098931462 0.2147101098931462 0.2147101098931462 0.2147101098931462 0.1579212377036552 0.1579212377036552 0.1579212377036552 0.1579212377036552 
0.09861312968839867 0.09861312968839867 0.09861312968839867 0.09861312968839867 0.03776200459674366 0.03776200459674366 0.03776200459674366 0.03776200459674366 -0.02362666520654215 
-0.02362666520654215 -0.02362666520654215 -0.02362666520654215 -0.08455891465675038 -0.08455891465675038 -0.08455891465675038 -0.08455891465675038 -0.1440815779349758 -0.1440815779349758 
-0.1440815779349758 -0.1440815779349758 -0.2012939448542068 -0.2012939448542068 -0.2012939448542068 -0.2012939448542068 -0.2553445226914987 -0.2553445226914987 -0.2553445226914987 
-0.2553445226914987 -0.3054216183252165 -0.3054216183252165 -0.3054216183252165 -0.3054216183252165 -0.3507498272026052 -0.3507498272026052 -0.3507498272026052 -0.3507498272026052 
-0.3906009195421349 -0.3906009195421349 -0.3906009195421349 -0.3906009195421349 -0.4243181075534026 -0.4243181075534026 -0.4243181075534026 -0.4243181075534026 -0.4513428266623773 
-0.4513428266623773 -0.4513428266623773 -0.4513428266623773 -0.4712336189891804 -0.4712336189891804 -0.4712336189891804 -0.4712336189891804 -0.483674791312382 -0.483674791312382 
-0.483674791312382 -0.483674791312382 -0.4884789245003426 -0.4884789245003426 -0.4884789245003426 -0.4884789245003426 -0.4855858291509725 -0.4855858291509725 -0.4855858291509725 
-0.4855858291509725 -0.4750610057325299 -0.4750610057325299 -0.4750610057325299 -0.4750610057325299 -0.4570969458012432 -0.4570969458012432 -0.4570969458012432 -0.4570969458012432 
-0.4320145347319318 -0.4320145347319318 -0.4320145347319318 -0.4320145347319318 -0.4002610693989417 -0.4002610693989417 -0.4002610693989417 -0.4002610693989417 -0.362383088095021 
-0.362383088095021 -0.362383088095021 -0.362383088095021 -0.3190574213695108 -0.3190574213695108 -0.3190574213695108 -0.3190574213695108 -0.270812864438348 -0.270812864438348 
-0.270812864438348 -0.270812864438348 -0.2191057411823916 -0.2191057411823916 -0.2191057411823916 -0.2191057411823916 -0.1614872492921469 -0.1614872492921469 -0.1614872492921469 
-0.1614872492921469 -0.1123298741478103 -0.1123298741478103 -0.1123298741478103 -0.1123298741478103 -0.01412780189035078 -0.01412780189035078 -0.01412780189035078 -0.01412780189035078 
0.05606649453189342 0.05606649453189342 0.05606649453189342 0.05606649453189342 0.1007865250658484 0.1007865250658484 0.1007865250658484 0.1007865250658484 0.1662017330698722 
0.1662017330698722 0.1662017330698722 0.1662017330698722 0.234648759231756 0.234648759231756 0.234648759231756 0.234648759231756 0.301008086958531 0.301008086958531 
0.301008086958531 0.301008086958531 0.3631288868043974 0.3631288868043974 0.3631288868043974 0.3631288868043974 0.4196002645106047 0.4196002645106047 0.4196002645106047 
0.4196002645106047 0.4692692070878419 0.4692692070878419 0.4692692070878419 0.4692692070878419 0.5111762067083238 0.5111762067083238 0.5111762067083238 0.5111762067083238 
0.5445722280351453 0.5445722280351453 0.5445722280351453 0.5445722280351453 0.5689341585733164 0.5689341585733164 0.5689341585733164 0.5689341585733164 0.5839593493699002 
0.5839593493699002 0.5839593493699002 0.5839593493699002 0.5895407342180994 0.5895407342180994 0.5895407342180994 0.5895407342180994 0.585730357561806 0.585730357561806 
0.585730357561806 0.585730357561806 0.5727031152283557 0.5727031152283557 0.5727031152283557 0.5727031152283557 0.5507330530223734 0.5507330530223734 0.5507330530223734 
0.5507330530223734 0.5201876183483718 0.5201876183483718 0.5201876183483718 0.5201876183483718 0.481535223140984 0.481535223140984 0.481535223140984 0.481535223140984 
0.4353556828470283 0.4353556828470283 0.4353556828470283 0.4353556828470283 0.3823428005035361 0.3823428005035361 0.3823428005035361 0.3823428005035361 0.3232977167557172 
0.3232977167557172 0.3232977167557172 0.3232977167557172 0.2591185525818548 0.2591185525818548 0.2591185525818548 0.2591185525818548 0.190792968858523 0.190792968858523 
0.190792968858523 0.190792968858523 0.1193961160234618 0.1193961160234618 0.1193961160234618 0.1193961160234618 0.04608384055799258 0.04608384055799258 0.04608384055799258 
0.04608384055799258 -0.02793403628812325 -0.02793403628812325 -0.02793403628812325 -0.02793403628812325 -0.1014401536367178 -0.1014401536367178 -0.1014401536367178 -0.1014401536367178 
-0.1732575721973538 -0.1732575721973538 -0.1732575721973538 -0.1732575721973538 -0.2422790233828992 -0.2422790233828992 -0.2422790233828992 -0.2422790233828992 -0.307469865321342 
-0.307469865321342 -0.307469865321342 -0.307469865321342 -0.3678543002027941 -0.3678543002027941 -0.3678543002027941 -0.3678543002027941 -0.4225046613886692 -0.4225046613886692 
-0.4225046613886692 -0.4225046613886692 -0.4705493927596428 -0.4705493927596428 -0.4705493927596428 -0.4705493927596428 -0.5111999578221897 -0.5111999578221897 -0.5111999578221897 
-0.5111999578221897 -0.5437838507171855 -0.5437838507171855 -0.5437838507171855 -0.5437838507171855 -0.5677695478651364 -0.5677695478651364 -0.5677695478651364 -0.5677695478651364 
-0.5827781374951492 -0.5827781374951492 -0.5827781374951492 -0.5827781374951492 -0.5885851104394251 -0.5885851104394251 -0.5885851104394251 -0.5885851104394251 -0.5851181906447018 
-0.5851181906447018 -0.5851181906447018 -0.5851181906447018 -0.5724561121623006 -0.5724561121623006 -0.5724561121623006 -0.5724561121623006 -0.5508306704298274 -0.5508306704298274 
-0.5508306704298274 -0.5508306704298274 -0.5206275915035299 -0.5206275915035299 -0.5206275915035299 -0.5206275915035299 -0.4823839479489073 -0.4823839479489073 -0.4823839479489073 
-0.4823839479489073 -0.4367566476438007 -0.4367566476438007 -0.4367566476438007 -0.4367566476438007 -0.3845595562211402 -0.3845595562211402 -0.3845595562211402 -0.3845595562211402 
-0.3264342564002189 -0.3264342564002189 -0.3264342564002189 -0.3264342564002189 -0.264118574400249 -0.264118574400249 -0.264118574400249 -0.264118574400249 -0.1947258276703884 
-0.1947258276703884 -0.1947258276703884 -0.1947258276703884 -0.1354006258346472 -0.1354006258346472 -0.1354006258346472 -0.1354006258346472 -0.01719396616254112 -0.01719396616254112 
-0.01719396616254112 -0.01719396616254112 0.06450186169872625 0.06450186169872625 0.06450186169872625 0.06450186169872625 0.116045287631224 0.116045287631224 0.116045287631224 
0.116045287631224 0.1914618809833499 0.1914618809833499 0.1914618809833499 0.1914618809833499 0.2704087959845556 0.2704087959845556 0.2704087959845556 0.2704087959845556 
0.3469745797683305 0.3469745797683305 0.3469745797683305 0.3469745797683305 0.4186542675932901 0.4186542675932901 0.4186542675932901 0.4186542675932901 0.4838018503310295 
0.4838018503310295 0.4838018503310295 0.4838018503310295 0.5410832321707988 0.5410832321707988 0.5410832321707988 0.5410832321707988 0.5893989214661979 0.5893989214661979 
0.5893989214661979 0.5893989214661979 0.6278963356781508 0.6278963356781508 0.6278963356781508 0.6278963356781508 0.6559816266609066 0.6559816266609066 0.6559816266609066 
0.6559816266609066 0.6733106798232626 0.6733106798232626 0.6733106798232626 0.6733106798232626 0.6797599470256018 0.6797599470256018 0.6797599470256018 0.6797599470256018 
0.6753857080131929 0.6753857080131929 0.6753857080131929 0.6753857080131929 0.6603846478601729 0.6603846478601729 0.6603846478601729 0.6603846478601729 0.6350689432200942 
0.6350689432200942 0.6350689432200942 0.6350689432200942 0.599862218964146 0.599862218964146 0.599862218964146 0.599862218964146 0.5553107253296368 0.5553107253296368 
0.5553107253296368 0.5553107253296368 0.5020946815337942 0.5020946815337942 0.5020946815337942 0.5020946815337942 0.4410256209074773 0.4410256209074773 0.4410256209074773 
0.4410256209074773 0.3730288688795039 0.3730288688795039 0.3730288688795039 0.3730288688795039 0.2991246954597142 0.2991246954597142 0.2991246954597142 0.2991246954597142 
0.2204235899485457 0.2204235899485457 0.2204235899485457 0.2204235899485457 0.1381369433209473 0.1381369433209473 0.1381369433209473 0.1381369433209473 0.05358388547542847 
0.05358388547542847 0.05358388547542847 0.05358388547542847 -0.03183122847672912 -0.03183122847672912 -0.03183122847672912 -0.03183122847672912 -0.1166769074720941 -0.1166769074720941 
-0.1166769074720941 -0.1166769074720941 -0.1995655721619874 -0.1995655721619874 -0.1995655721619874 -0.1995655721619874 -0.2792030340579981 -0.2792030340579981 -0.2792030340579981 
-0.2792030340579981 -0.3543970801395098 -0.3543970801395098 -0.3543970801395098 -0.3543970801395098 -0.4240352761599234 -0.4240352761599234 -0.4240352761599234 -0.4240352761599234 
-0.4870617517036335 -0.4870617517036335 -0.4870617517036335 -0.4870617517036335 -0.5424785539130563 -0.5424785539130563 -0.5424785539130563 -0.5424785539130563 -0.5893755004808505 
-0.5893755004808505 -0.5893755004808505 -0.5893755004808505 -0.6269721647049237 -0.6269721647049237 -0.6269721647049237 -0.6269721647049237 -0.6546516150085118 -0.6546516150085118 
-0.6546516150085118 -0.6546516150085118 -0.6719761696673797 -0.6719761696673797 -0.6719761696673797 -0.6719761696673797 -0.678688431616733 -0.678688431616733 -0.678688431616733 
-0.678688431616733 -0.6747068305744737 -0.6747068305744737 -0.6747068305744737 -0.6747068305744737 -0.6601232801445827 -0.6601232801445827 -0.6601232801445827 -0.6601232801445827 
-0.6352051913611578 -0.6352051913611578 -0.6352051913611578 -0.6352051913611578 -0.6003963246818699 -0.6003963246818699 -0.6003963246818699 -0.6003963246818699 -0.5563142619858458 
-0.5563142619858458 -0.5563142619858458 -0.5563142619858458 -0.5037149743322342 -0.5037149743322342 -0.5037149743322342 -0.5037149743322342 -0.4435354818080736 -0.4435354818080736 
-0.4435354818080736 -0.4435354818080736 -0.3765186952387192 -0.3765186952387192 -0.3765186952387192 -0.3765186952387192 -0.3046586803408176 -0.3046586803408176 -0.3046586803408176 
-0.3046586803408176 -0.2246600363791392 -0.2246600363791392 -0.2246600363791392 -0.2246600363791392 -0.1562210957080846 -0.1562210957080846 -0.1562210957080846 -0.1562210957080846 
-0.01994725115532894 -0.01994725115532894 -0.01994725115532894 -0.01994725115532894 0.0718133234651652 0.0718133234651652 0.0718133234651652 0.0718133234651652 0.129284930305485 
0.129284930305485 0.129284930305485 0.129284930305485 0.2133736695197287 0.2133736695197287 0.2133736695197287 0.2133736695197287 0.3014083817512213 0.3014083817512213 
0.3014083817512213 0.3014083817512213 0.3868101303111938 0.3868101303111938 0.3868101303111938 0.3868101303111938 0.4667826817276369 0.4667826817276369 0.4667826817276369 
0.4667826817276369 0.5394769026476518 0.5394769026476518 0.5394769026476518 0.5394769026476518 0.6033915095067153 0.6033915095067153 0.6033915095067153 0.6033915095067153 
0.6572933409977428 0.6572933409977428 0.6572933409977428 0.6572933409977428 0.700232143690906 0.700232143690906 0.700232143690906 0.700232143690906 0.7315512461151663 
0.7315512461151663 0.7315512461151663 0.7315512461151663 0.7508736682720274 0.7508736682720274 0.7508736682720274 0.7508736682720274 0.758066320919605 0.758066320919605 
0.758066320919605 0.758066320919605 0.7531930847638619 0.7531930847638619 0.7531930847638619 0.7531930847638619 0.7364712962125126 0.7364712962125126 0.7364712962125126 
0.7364712962125126 0.7082463338326568 0.7082463338326568 0.7082463338326568 0.7082463338326568 0.6689910673303032 0.6689910673303032 0.6689910673303032 0.6689910673303032 
0.619321391315206 0.619321391315206 0.619321391315206 0.619321391315206 0.5600073899828059 0.5600073899828059 0.5600073899828059 0.5600073899828059 0.491962755081954 
0.491962755081954 0.491962755081954 0.491962755081954 0.4162147286364442 0.4162147286364442 0.4162147286364442 0.4162147286364442 0.3338780905615504 0.3338780905615504 
0.3338780905615504 0.3338780905615504 0.246157602857345 0.246157602857345 0.246157602857345 0.246157602857345 0.1543781494514964 0.1543781494514964 0.1543781494514964 