Title = Result/Post/Linear_Advection_2D/FVM/MLP_u1_Least_Square/Sine_Wave_2D/Quad50/
FileType = Solution
Variables = q
Zone T = Result/Post/Linear_Advection_2D/FVM/MLP_u1_Least_Square/Sine_Wave_2D/Quad50/
ZoneType = FETriangle
Nodes = 10000
Elements = 5000
DataPacking = Block
StrandID = 2
SolutionTime = 0.1
0.09511688914252404 0.09511688914252404 0.09511688914252404 0.09511688914252404 0.08223888227880023 0.08223888227880023 0.08223888227880023 0.08223888227880023 0.06237500407290817 0.06237500407290817 
0.06237500407290817 0.06237500407290817 0.04096975206288693 0.04096975206288693 0.04096975206288693 0.04096975206288693 0.01893774552842729 0.01893774552842729 0.01893774552842729 
0.01893774552842729 -0.005039901988481952 -0.005039901988481952 -0.005039901988481952 -0.005039901988481952 -0.03152417740299998 -0.03152417740299998 -0.03152417740299998 -0.03152417740299998 
-0.05888359667689785 -0.05888359667689785 -0.05888359667689785 -0.05888359667689785 -0.08477879036359304 -0.08477879036359304 -0.08477879036359304 -0.08477879036359304 -0.1078738329462976 
-0.1078738329462976 -0.1078738329462976 -0.1078738329462976 -0.1282029955713112 -0.1282029955713112 -0.1282029955713112 -0.1282029955713112 -0.1462492498647424 -0.1462492498647424 
-0.1462492498647424 -0.1462492498647424 -0.1621422885153635 -0.1621422885153635 -0.1621422885153635 -0.1621422885153635 -0.1756476236398263 -0.1756476236398263 -0.1756476236398263 
-0.1756476236398263 -0.1864344710076586 -0.1864344710076586 -0.1864344710076586 -0.1864344710076586 -0.1942707528735025 -0.1942707528735025 -0.1942707528735025 -0.1942707528735025 
-0.1990163673877444 -0.1990163673877444 -0.1990163673877444 -0.1990163673877444 -0.2005998924486777 -0.2005998924486777 -0.2005998924486777 -0.2005998924486777 -0.1990458137209896 
-0.1990458137209896 -0.1990458137209896 -0.1990458137209896 -0.1943661289553483 -0.1943661289553483 -0.1943661289553483 -0.1943661289553483 -0.1866059824902089 -0.1866059824902089 
-0.1866059824902089 -0.1866059824902089 -0.1758991496505872 -0.1758991496505872 -0.1758991496505872 -0.1758991496505872 -0.162419244825113 -0.162419244825113 -0.162419244825113 
-0.162419244825113 -0.146379625529067 -0.146379625529067 -0.146379625529067 -0.146379625529067 -0.1280312526655001 -0.1280312526655001 -0.1280312526655001 -0.1280312526655001 
-0.1076655708043313 -0.1076655708043313 -0.1076655708043313 -0.1076655708043313 -0.08560514260529486 -0.08560514260529486 -0.08560514260529486 -0.08560514260529486 -0.06218380090449784 
-0.06218380090449784 -0.06218380090449784 -0.06218380090449784 -0.03778427019033022 -0.03778427019033022 -0.03778427019033022 -0.03778427019033022 -0.01281731685332288 -0.01281731685332288 
-0.01281731685332288 -0.01281731685332288 0.01236705837575952 0.01236705837575952 0.01236705837575952 0.01236705837575952 0.03738651082012268 0.03738651082012268 0.03738651082012268 
0.03738651082012268 0.06180237821669927 0.06180237821669927 0.06180237821669927 0.06180237821669927 0.08523001903380389 0.08523001903380389 0.08523001903380389 0.08523001903380389 
0.1073126361776185 0.1073126361776185 0.1073126361776185 0.1073126361776185 0.1277065836872215 0.1277065836872215 0.1277065836872215 0.1277065836872215 0.1460918442454494 
0.1460918442454494 0.1460918442454494 0.1460918442454494 0.162172141851202 0.162172141851202 0.162172141851202 0.162172141851202 0.1756947480896316 0.1756947480896316 
0.1756947480896316 0.1756947480896316 0.1864495343385873 0.1864495343385873 0.1864495343385873 0.1864495343385873 0.1942683111052811 0.1942683111052811 0.1942683111052811 
0.1942683111052811 0.1990127357727663 0.1990127357727663 0.1990127357727663 0.1990127357727663 0.2005993490208569 0.2005993490208569 0.2005993490208569 0.2005993490208569 
0.1990448501423105 0.1990448501423105 0.1990448501423105 0.1990448501423105 0.1943737439884314 0.1943737439884314 0.1943737439884314 0.1943737439884314 0.1865669586601063 
0.1865669586601063 0.1865669586601063 0.1865669586601063 0.1760830020137784 0.1760830020137784 0.1760830020137784 0.1760830020137784 0.1616328515950204 0.1616328515950204 
0.1616328515950204 0.1616328515950204 0.1494536550861024 0.1494536550861024 0.1494536550861024 0.1494536550861024 0.1165939658464201 0.1165939658464201 0.1165939658464201 
0.1165939658464201 0.06575009026848888 0.06575009026848888 0.06575009026848888 0.06575009026848888 0.0559129942174003 0.0559129942174003 0.0559129942174003 0.0559129942174003 
0.04200537311535874 0.04200537311535874 0.04200537311535874 0.04200537311535874 0.02740527927598495 0.02740527927598495 0.02740527927598495 0.02740527927598495 0.01266509991427438 
0.01266509991427438 0.01266509991427438 0.01266509991427438 -0.003491067471822475 -0.003491067471822475 -0.003491067471822475 -0.003491067471822475 -0.02151510723077481 -0.02151510723077481 
-0.02151510723077481 -0.02151510723077481 -0.04017522486546857 -0.04017522486546857 -0.04017522486546857 -0.04017522486546857 -0.05785327714592788 -0.05785327714592788 -0.05785327714592788 
-0.05785327714592788 -0.0736175374876519 -0.0736175374876519 -0.0736175374876519 -0.0736175374876519 -0.08752177015458153 -0.08752177015458153 -0.08752177015458153 -0.08752177015458153 
-0.09987925494381453 -0.09987925494381453 -0.09987925494381453 -0.09987925494381453 -0.1107501048798993 -0.1107501048798993 -0.1107501048798993 -0.1107501048798993 -0.1199740258330387 
-0.1199740258330387 -0.1199740258330387 -0.1199740258330387 -0.1273308132114054 -0.1273308132114054 -0.1273308132114054 -0.1273308132114054 -0.1326691482231275 -0.1326691482231275 
-0.1326691482231275 -0.1326691482231275 -0.1358964019066815 -0.1358964019066815 -0.1358964019066815 -0.1358964019066815 -0.1369730662902861 -0.1369730662902861 -0.1369730662902861 
-0.1369730662902861 -0.1359045417588618 -0.1359045417588618 -0.1359045417588618 -0.1359045417588618 -0.1327027185545243 -0.1327027185545243 -0.1327027185545243 -0.1327027185545243 
-0.1274013541002943 -0.1274013541002943 -0.1274013541002943 -0.1274013541002943 -0.1200843898068413 -0.1200843898068413 -0.1200843898068413 -0.1200843898068413 -0.1108729735467778 
-0.1108729735467778 -0.1108729735467778 -0.1108729735467778 -0.09991409819652888 -0.09991409819652888 -0.09991409819652888 -0.09991409819652888 -0.08737857694918663 -0.08737857694918663 
-0.08737857694918663 -0.08737857694918663 -0.073468874979432 -0.073468874979432 -0.073468874979432 -0.073468874979432 -0.05840169249635153 -0.05840169249635153 -0.05840169249635153 
-0.05840169249635153 -0.04239037049989516 -0.04239037049989516 -0.04239037049989516 -0.04239037049989516 -0.02573281667614652 -0.02573281667614652 -0.02573281667614652 -0.02573281667614652 
-0.008730984026360236 -0.008730984026360236 -0.008730984026360236 -0.008730984026360236 0.008463119298266474 0.008463119298266474 0.008463119298266474 0.008463119298266474 0.02558848152156756 
0.02558848152156756 0.02558848152156756 0.02558848152156756 0.04227463838459518 0.04227463838459518 0.04227463838459518 0.04227463838459518 0.05826247988983058 0.05826247988983058 
0.05826247988983058 0.05826247988983058 0.07332637893987713 0.07332637893987713 0.07332637893987713 0.07332637893987713 0.08724405845018314 0.08724405845018314 0.08724405845018314 
0.08724405845018314 0.09979551448474934 0.09979551448474934 0.09979551448474934 0.09979551448474934 0.1107716241925134 0.1107716241925134 0.1107716241925134 0.1107716241925134 
0.1200005709758714 0.1200005709758714 0.1200005709758714 0.1200005709758714 0.1273385026797668 0.1273385026797668 0.1273385026797668 0.1273385026797668 0.1326674780970933 
0.1326674780970933 0.1326674780970933 0.1326674780970933 0.1358944742080017 0.1358944742080017 0.1358944742080017 0.1358944742080017 0.1369728649015246 0.1369728649015246 
0.1369728649015246 0.1369728649015246 0.1359042788893374 0.1359042788893374 0.1359042788893374 0.1359042788893374 0.1327054066575628 0.1327054066575628 0.1327054066575628 
0.1327054066575628 0.1273872419019676 0.1273872419019676 0.1273872419019676 0.1273872419019676 0.1201537221975367 0.1201537221975367 0.1201537221975367 0.1201537221975367 
0.1105579253228019 0.1105579253228019 0.1105579253228019 0.1105579253228019 0.1013179766263971 0.1013179766263971 0.1013179766263971 0.1013179766263971 0.08044201425959621 
0.08044201425959621 0.08044201425959621 0.08044201425959621 0.01754273590996247 0.01754273590996247 0.01754273590996247 0.01754273590996247 0.01463855455208016 0.01463855455208016 
0.01463855455208016 0.01463855455208016 0.01055689613807629 0.01055689613807629 0.01055689613807629 0.01055689613807629 0.006781144248776898 0.006781144248776898 0.006781144248776898 
0.006781144248776898 0.003320030657845652 0.003320030657845652 0.003320030657845652 0.003320030657845652 -0.0007631510324459189 -0.0007631510324459189 -0.0007631510324459189 -0.0007631510324459189 
-0.005557736998611511 -0.005557736998611511 -0.005557736998611511 -0.005557736998611511 -0.01052866013330661 -0.01052866013330661 -0.01052866013330661 -0.01052866013330661 -0.01509144017351097 
-0.01509144017351097 -0.01509144017351097 -0.01509144017351097 -0.01901121694475917 -0.01901121694475917 -0.01901121694475917 -0.01901121694475917 -0.02249850474764737 -0.02249850474764737 
-0.02249850474764737 -0.02249850474764737 -0.02566950953005694 -0.02566950953005694 -0.02566950953005694 -0.02566950953005694 -0.02849154524773742 -0.02849154524773742 -0.02849154524773742 
-0.02849154524773742 -0.03088179823824745 -0.03088179823824745 -0.03088179823824745 -0.03088179823824745 -0.03277185643975954 -0.03277185643975954 -0.03277185643975954 -0.03277185643975954 
-0.03413786758366417 -0.03413786758366417 -0.03413786758366417 -0.03413786758366417 -0.03496001571728303 -0.03496001571728303 -0.03496001571728303 -0.03496001571728303 -0.03523053773760887 
-0.03523053773760887 -0.03523053773760887 -0.03523053773760887 -0.03495341305960444 -0.03495341305960444 -0.03495341305960444 -0.03495341305960444 -0.03413085427907587 -0.03413085427907587 
-0.03413085427907587 -0.03413085427907587 -0.03276801369465734 -0.03276801369465734 -0.03276801369465734 -0.03276801369465734 -0.03088410668199356 -0.03088410668199356 -0.03088410668199356 
-0.03088410668199356 -0.02851163201006159 -0.02851163201006159 -0.02851163201006159 -0.02851163201006159 -0.02568945707281901 -0.02568945707281901 -0.02568945707281901 -0.02568945707281901 
-0.02246041439090781 -0.02246041439090781 -0.02246041439090781 -0.02246041439090781 -0.01888122260948221 -0.01888122260948221 -0.01888122260948221 -0.01888122260948221 -0.01500099674504025 
-0.01500099674504025 -0.01500099674504025 -0.01500099674504025 -0.01086698612791656 -0.01086698612791656 -0.01086698612791656 -0.01086698612791656 -0.006620676569078107 -0.006620676569078107 
-0.006620676569078107 -0.006620676569078107 -0.002328295212137695 -0.002328295212137695 -0.002328295212137695 -0.002328295212137695 0.002160856634886665 0.002160856634886665 0.002160856634886665 
0.002160856634886665 0.006634909078702259 0.006634909078702259 0.006634909078702259 0.006634909078702259 0.01094460730147885 0.01094460730147885 0.01094460730147885 0.01094460730147885 
0.01504252355620113 0.01504252355620113 0.01504252355620113 0.01504252355620113 0.01889098443960113 0.01889098443960113 0.01889098443960113 0.01889098443960113 0.02246036996796123 
0.02246036996796123 0.02246036996796123 0.02246036996796123 0.02568949986863103 0.02568949986863103 0.02568949986863103 0.02568949986863103 0.02851226998857705 0.02851226998857705 
0.02851226998857705 0.02851226998857705 0.03088447877068529 0.03088447877068529 0.03088447877068529 0.03088447877068529 0.03276888941133638 0.03276888941133638 0.03276888941133638 
0.03276888941133638 0.03413584446101278 0.03413584446101278 0.03413584446101278 0.03413584446101278 0.03495995410935225 0.03495995410935225 0.03495995410935225 0.03495995410935225 
0.03523088696060296 0.03523088696060296 0.03523088696060296 0.03523088696060296 0.03495357880304818 0.03495357880304818 0.03495357880304818 0.03495357880304818 0.03413034854924062 
0.03413034854924062 0.03413034854924062 0.03413034854924062 0.03277030823403463 0.03277030823403463 0.03277030823403463 0.03277030823403463 0.030875255842938 0.030875255842938 
0.030875255842938 0.030875255842938 0.02853278191720041 0.02853278191720041 0.02853278191720041 0.02853278191720041 0.02575467387323594 0.02575467387323594 0.02575467387323594 
0.02575467387323594 0.02102996581374084 0.02102996581374084 0.02102996581374084 0.02102996581374084 -0.04337134533618282 -0.04337134533618282 -0.04337134533618282 -0.04337134533618282 
-0.03734052223770565 -0.03734052223770565 -0.03734052223770565 -0.03734052223770565 -0.02838589765021729 -0.02838589765021729 -0.02838589765021729 -0.02838589765021729 -0.01855014118034888 
-0.01855014118034888 -0.01855014118034888 -0.01855014118034888 -0.008147618586487399 -0.008147618586487399 -0.008147618586487399 -0.008147618586487399 0.002880260009454495 0.002880260009454495 
0.002880260009454495 0.002880260009454495 0.01460366825947121 0.01460366825947121 0.01460366825947121 0.01460366825947121 0.02663179168418311 0.02663179168418311 0.02663179168418311 
0.02663179168418311 0.03840859020744254 0.03840859020744254 0.03840859020744254 0.03840859020744254 0.04925190873889166 0.04925190873889166 0.04925190873889166 0.04925190873889166 
0.05880380056496271 0.05880380056496271 0.05880380056496271 0.05880380056496271 0.06715714620296648 0.06715714620296648 0.06715714620296648 0.06715714620296648 0.07441277868425891 
0.07441277868425891 0.07441277868425891 0.07441277868425891 0.08056187819756468 0.08056187819756468 0.08056187819756468 0.08056187819756468 0.08548811243713225 0.08548811243713225 
0.08548811243713225 0.08548811243713225 0.08907043905032504 0.08907043905032504 0.08907043905032504 0.08907043905032504 0.09124246282442318 0.09124246282442318 0.09124246282442318 
0.09124246282442318 0.09197061049102313 0.09197061049102313 0.09197061049102313 0.09197061049102313 0.09124510160590915 0.09124510160590915 0.09124510160590915 0.09124510160590915 
0.08907815268892263 0.08907815268892263 0.08907815268892263 0.08907815268892263 0.08550682497635501 0.08550682497635501 0.08550682497635501 0.08550682497635501 0.08058899839073594 
0.08058899839073594 0.08058899839073594 0.08058899839073594 0.07440126849041048 0.07440126849041048 0.07440126849041048 0.07440126849041048 0.06704064632453353 0.06704064632453353 
0.06704064632453353 0.06704064632453353 0.0586248199885166 0.0586248199885166 0.0586248199885166 0.0586248199885166 0.04928113348174574 0.04928113348174574 0.04928113348174574 
0.04928113348174574 0.03916410658187936 0.03916410658187936 0.03916410658187936 0.03916410658187936 0.02843298060515679 0.02843298060515679 0.02843298060515679 0.02843298060515679 
0.01720024560886105 0.01720024560886105 0.01720024560886105 0.01720024560886105 0.005702692425566896 0.005702692425566896 0.005702692425566896 0.005702692425566896 -0.005792570901114152 
-0.005792570901114152 -0.005792570901114152 -0.005792570901114152 -0.01718882613132997 -0.01718882613132997 -0.01718882613132997 -0.01718882613132997 -0.02834912364016298 -0.02834912364016298 
-0.02834912364016298 -0.02834912364016298 -0.03910841236550341 -0.03910841236550341 -0.03910841236550341 -0.03910841236550341 -0.04926380089597971 -0.04926380089597971 -0.04926380089597971 
-0.04926380089597971 -0.05861430261454599 -0.05861430261454599 -0.05861430261454599 -0.05861430261454599 -0.06703196969682305 -0.06703196969682305 -0.06703196969682305 -0.06703196969682305 
-0.07439223171511139 -0.07439223171511139 -0.07439223171511139 -0.07439223171511139 -0.08058177134822338 -0.08058177134822338 -0.08058177134822338 -0.08058177134822338 -0.08550151077604889 
-0.08550151077604889 -0.08550151077604889 -0.08550151077604889 -0.0890727607613729 -0.0890727607613729 -0.0890727607613729 -0.0890727607613729 -0.09124061721539112 -0.09124061721539112 
-0.09124061721539112 -0.09124061721539112 -0.09196977255691659 -0.09196977255691659 -0.09196977255691659 -0.09196977255691659 -0.09124441370284114 -0.09124441370284114 -0.09124441370284114 
-0.09124441370284114 -0.08908212846764155 -0.08908212846764155 -0.08908212846764155 -0.08908212846764155 -0.08548685272916247 -0.08548685272916247 -0.08548685272916247 -0.08548685272916247 
-0.08068202013679553 -0.08068202013679553 -0.08068202013679553 -0.08068202013679553 -0.07401441215181537 -0.07401441215181537 -0.07401441215181537 -0.07401441215181537 -0.06848834593267687 
-0.06848834593267687 -0.06848834593267687 -0.06848834593267687 -0.05352839370653875 -0.05352839370653875 -0.05352839370653875 -0.05352839370653875 -0.11019829069446 -0.11019829069446 
-0.11019829069446 -0.11019829069446 -0.09453611444910505 -0.09453611444910505 -0.09453611444910505 -0.09453611444910505 -0.07143895081867679 -0.07143895081867679 -0.07143895081867679 
-0.07143895081867679 -0.04678664859921498 -0.04678664859921498 -0.04678664859921498 -0.04678664859921498 -0.02099660884787049 -0.02099660884787049 -0.02099660884787049 -0.02099660884787049 
0.006866051347573475 0.006866051347573475 0.006866051347573475 0.006866051347573475 0.0368332229643759 0.0368332229643759 0.0368332229643759 0.0368332229643759 0.06758397157664597 
0.06758397157664597 0.06758397157664597 0.06758397157664597 0.09712008469024846 0.09712008469024846 0.09712008469024846 0.09712008469024846 0.123905748237696 0.123905748237696 
0.123905748237696 0.123905748237696 0.1476267418323139 0.1476267418323139 0.1476267418323139 0.1476267418323139 0.1685465684570232 0.1685465684570232 0.1685465684570232 
0.1685465684570232 0.1868252942567545 0.1868252942567545 0.1868252942567545 0.1868252942567545 0.20231969058292 0.20231969058292 0.20231969058292 0.20231969058292 
0.2147009975520512 0.2147009975520512 0.2147009975520512 0.2147009975520512 0.2236993031442162 0.2236993031442162 0.2236993031442162 0.2236993031442162 0.2291539396185768 
0.2291539396185768 0.2291539396185768 0.2291539396185768 0.2309868610154109 0.2309868610154109 0.2309868610154109 0.2309868610154109 0.2291763665059631 0.2291763665059631 
0.2291763665059631 0.2291763665059631 0.2237516030640308 0.2237516030640308 0.2237516030640308 0.2237516030640308 0.2147984364059627 0.2147984364059627 0.2147984364059627 
0.2147984364059627 0.202458374187288 0.202458374187288 0.202458374187288 0.202458374187288 0.1869257683243238 0.1869257683243238 0.1869257683243238 0.1869257683243238 
0.1684454621490649 0.1684454621490649 0.1684454621490649 0.1684454621490649 0.1473103462183568 0.1473103462183568 0.1473103462183568 0.1473103462183568 0.1238498940207556 
0.1238498940207556 0.1238498940207556 0.1238498940207556 0.0984398037705119 0.0984398037705119 0.0984398037705119 0.0984398037705119 0.07147839363460903 0.07147839363460903 
0.07147839363460903 0.07147839363460903 0.04336726857432807 0.04336726857432807 0.04336726857432807 0.04336726857432807 0.01457923247251807 0.01457923247251807 0.01457923247251807 
0.01457923247251807 -0.01441102747325746 -0.01441102747325746 -0.01441102747325746 -0.01441102747325746 -0.04315450785220679 -0.04315450785220679 -0.04315450785220679 -0.04315450785220679 
-0.07123832849443523 -0.07123832849443523 -0.07123832849443523 -0.07123832849443523 -0.09823937183542743 -0.09823937183542743 -0.09823937183542743 -0.09823937183542743 -0.1236807926118254 
-0.1236807926118254 -0.1236807926118254 -0.1236807926118254 -0.1471574805634199 -0.1471574805634199 -0.1471574805634199 -0.1471574805634199 -0.1683089622621709 -0.1683089622621709 
-0.1683089622621709 -0.1683089622621709 -0.1868062585122725 -0.1868062585122725 -0.1868062585122725 -0.1868062585122725 -0.2023608678293973 -0.2023608678293973 -0.2023608678293973 
-0.2023608678293973 -0.2147243845230805 -0.2147243845230805 -0.2147243845230805 -0.2147243845230805 -0.2237012832143319 -0.2237012832143319 -0.2237012832143319 -0.2237012832143319 
-0.2291503348058058 -0.2291503348058058 -0.2291503348058058 -0.2291503348058058 -0.2309855568164299 -0.2309855568164299 -0.2309855568164299 -0.2309855568164299 -0.2291751820772509 
-0.2291751820772509 -0.2291751820772509 -0.2291751820772509 -0.2237589701764181 -0.2237589701764181 -0.2237589701764181 -0.2237589701764181 -0.214761021178107 -0.214761021178107 
-0.214761021178107 -0.214761021178107 -0.2026357249010397 -0.2026357249010397 -0.2026357249010397 -0.2026357249010397 -0.1861622707438204 -0.1861622707438204 -0.1861622707438204 
-0.1861622707438204 -0.1715189469786359 -0.1715189469786359 -0.1715189469786359 -0.1715189469786359 -0.1351360005572561 -0.1351360005572561 -0.1351360005572561 -0.1351360005572561 
-0.1739243802828864 -0.1739243802828864 -0.1739243802828864 -0.1739243802828864 -0.149274960366876 -0.149274960366876 -0.149274960366876 -0.149274960366876 -0.1128832064783823 
-0.1128832064783823 -0.1128832064783823 -0.1128832064783823 -0.07412037346904843 -0.07412037346904843 -0.07412037346904843 -0.07412037346904843 -0.03352253145791893 -0.03352253145791893 
-0.03352253145791893 -0.03352253145791893 0.0105582553765903 0.0105582553765903 0.0105582553765903 0.0105582553765903 0.05822264134549406 0.05822264134549406 0.05822264134549406 
0.05822264134549406 0.1069838450571136 0.1069838450571136 0.1069838450571136 0.1069838450571136 0.1533665744567347 0.1533665744567347 0.1533665744567347 0.1533665744567347 
0.1952844479251034 0.1952844479251034 0.1952844479251034 0.1952844479251034 0.2324605637314491 0.2324605637314491 0.2324605637314491 0.2324605637314491 0.2653524877147667 
0.2653524877147667 0.2653524877147667 0.2653524877147667 0.2941794808822615 0.2941794808822615 0.2941794808822615 0.2941794808822615 0.3186130631074001 0.3186130631074001 
0.3186130631074001 0.3186130631074001 0.3381284676200296 0.3381284676200296 0.3381284676200296 0.3381284676200296 0.352310328021427 0.352310328021427 0.352310328021427 
0.352310328021427 0.36091089810771 0.36091089810771 0.36091089810771 0.36091089810771 0.3638102244794507 0.3638102244794507 0.3638102244794507 0.3638102244794507 
0.3609726490024133 0.3609726490024133 0.3609726490024133 0.3609726490024133 0.352443867760901 0.352443867760901 0.352443867760901 0.352443867760901 0.3383572853382393 
0.3383572853382393 0.3383572853382393 0.3383572853382393 0.318934628801209 0.318934628801209 0.318934628801209 0.318934628801209 0.2944821397659886 0.2944821397659886 
0.2944821397659886 0.2944821397659886 0.2653854231823021 0.2653854231823021 0.2653854231823021 0.2653854231823021 0.2321044017942644 0.2321044017942644 0.2321044017942644 
0.2321044017942644 0.1951617700292022 0.1951617700292022 0.1951617700292022 0.1951617700292022 0.1551438575739666 0.1551438575739666 0.1551438575739666 0.1551438575739666 
0.1126818397207873 0.1126818397207873 0.1126818397207873 0.1126818397207873 0.06843548448340775 0.06843548448340775 0.06843548448340775 0.06843548448340775 0.02310479277527413 
0.02310479277527413 0.02310479277527413 0.02310479277527413 -0.02257747781342644 -0.02257747781342644 -0.02257747781342644 -0.02257747781342644 -0.06789324906828081 -0.06789324906828081 
-0.06789324906828081 -0.06789324906828081 -0.1121582227805979 -0.1121582227805979 -0.1121582227805979 -0.1121582227805979 -0.1546593497550017 -0.1546593497550017 -0.1546593497550017 
-0.1546593497550017 -0.1947154548649714 -0.1947154548649714 -0.1947154548649714 -0.1947154548649714 -0.2316969188043319 -0.2316969188043319 -0.2316969188043319 -0.2316969188043319 
-0.2650209358169399 -0.2650209358169399 -0.2650209358169399 -0.2650209358169399 -0.2941680047041484 -0.2941680047041484 -0.2941680047041484 -0.2941680047041484 -0.3186775620060462 
-0.3186775620060462 -0.3186775620060462 -0.3186775620060462 -0.3381611843946151 -0.3381611843946151 -0.3381611843946151 -0.3381611843946151 -0.3523116421664992 -0.3523116421664992 
-0.3523116421664992 -0.3523116421664992 -0.3609057666043061 -0.3609057666043061 -0.3609057666043061 -0.3609057666043061 -0.3638084476390986 -0.3638084476390986 -0.3638084476390986 
-0.3638084476390986 -0.3609710190831217 -0.3609710190831217 -0.3609710190831217 -0.3609710190831217 -0.3524545460145795 -0.3524545460145795 -0.3524545460145795 -0.3524545460145795 
-0.3383026605979242 -0.3383026605979242 -0.3383026605979242 -0.3383026605979242 -0.319195818893109 -0.319195818893109 -0.319195818893109 -0.319195818893109 -0.2933407203544057 
-0.2933407203544057 -0.2933407203544057 -0.2933407203544057 -0.2700901851173405 -0.2700901851173405 -0.2700901851173405 -0.2700901851173405 -0.2130140733796564 -0.2130140733796564 
-0.2130140733796564 -0.2130140733796564 -0.230590693725406 -0.230590693725406 -0.230590693725406 -0.230590693725406 -0.1980170255254543 -0.1980170255254543 -0.1980170255254543 
-0.1980170255254543 -0.1498198177104166 -0.1498198177104166 -0.1498198177104166 -0.1498198177104166 -0.09849353953070368 -0.09849353953070368 -0.09849353953070368 -0.09849353953070368 
-0.04472267165753325 -0.04472267165753325 -0.04472267165753325 -0.04472267165753325 0.0138678350274358 0.0138678350274358 0.0138678350274358 0.0138678350274358 0.07738387322969224 
0.07738387322969224 0.07738387322969224 0.07738387322969224 0.1421868819889584 0.1421868819889584 0.1421868819889584 0.1421868819889584 0.2036241175910286 0.2036241175910286 
0.2036241175910286 0.2036241175910286 0.2590517714735806 0.2590517714735806 0.2590517714735806 0.2590517714735806 0.3082151221261215 0.3082151221261215 0.3082151221261215 
0.3082151221261215 0.3518148186482462 0.3518148186482462 0.3518148186482462 0.3518148186482462 0.3900672160311216 0.3900672160311216 0.3900672160311216 0.3900672160311216 
0.4224856581474253 0.4224856581474253 0.4224856581474253 0.4224856581474253 0.4483736143343313 0.4483736143343313 0.4483736143343313 0.4483736143343313 0.4671814827631813 
0.4671814827631813 0.4671814827631813 0.4671814827631813 0.478589525101892 0.478589525101892 0.478589525101892 0.478589525101892 0.4824387129367885 0.4824387129367885 
0.4824387129367885 0.4824387129367885 0.4786808228726771 0.4786808228726771 0.4786808228726771 0.4786808228726771 0.4673763511563778 0.4673763511563778 0.4673763511563778 
0.4673763511563778 0.4487016252985068 0.4487016252985068 0.4487016252985068 0.4487016252985068 0.4229504386724546 0.4229504386724546 0.4229504386724546 0.4229504386724546 
0.390528905454201 0.390528905454201 0.390528905454201 0.390528905454201 0.3519483324681792 0.3519483324681792 0.3519483324681792 0.3519483324681792 0.3078177541607696 
0.3078177541607696 0.3078177541607696 0.3078177541607696 0.2588320783901547 0.2588320783901547 0.2588320783901547 0.2588320783901547 0.205765298062483 0.205765298062483 
0.205765298062483 0.205765298062483 0.1494554263084574 0.1494554263084574 0.1494554263084574 0.1494554263084574 0.09078633610813393 0.09078633610813393 0.09078633610813393 
0.09078633610813393 0.03068293012728616 0.03068293012728616 0.03068293012728616 0.03068293012728616 -0.02990050939791964 -0.02990050939791964 -0.02990050939791964 -0.02990050939791964 
-0.09001412306619579 -0.09001412306619579 -0.09001412306619579 -0.09001412306619579 -0.1487095434099913 -0.1487095434099913 -0.1487095434099913 -0.1487095434099913 -0.2050592800749484 
-0.2050592800749484 -0.2050592800749484 -0.2050592800749484 -0.2581751276884042 -0.2581751276884042 -0.2581751276884042 -0.2581751276884042 -0.3072161220739745 -0.3072161220739745 
-0.3072161220739745 -0.3072161220739745 -0.3514125336502862 -0.3514125336502862 -0.3514125336502862 -0.3514125336502862 -0.3900687526196038 -0.3900687526196038 -0.3900687526196038 
-0.3900687526196038 -0.4225734362208056 -0.4225734362208056 -0.4225734362208056 -0.4225734362208056 -0.448413778677704 -0.448413778677704 -0.448413778677704 -0.448413778677704 
-0.4671822581453525 -0.4671822581453525 -0.4671822581453525 -0.4671822581453525 -0.4785829088110757 -0.4785829088110757 -0.4785829088110757 -0.4785829088110757 -0.4824365093159226 
-0.4824365093159226 -0.4824365093159226 -0.4824365093159226 -0.4786787789912405 -0.4786787789912405 -0.4786787789912405 -0.4786787789912405 -0.4673902011914894 -0.4673902011914894 
-0.4673902011914894 -0.4673902011914894 -0.4486303745198371 -0.4486303745198371 -0.4486303745198371 -0.4486303745198371 -0.4232928535539657 -0.4232928535539657 -0.4232928535539657 
-0.4232928535539657 -0.3890220354036929 -0.3890220354036929 -0.3890220354036929 -0.3890220354036929 -0.3582044577631221 -0.3582044577631221 -0.3582044577631221 -0.3582044577631221 
-0.282407521196011 -0.282407521196011 -0.282407521196011 -0.282407521196011 -0.2810954267076427 -0.2810954267076427 -0.2810954267076427 -0.2810954267076427 -0.2414372568457942 
-0.2414372568457942 -0.2414372568457942 -0.2414372568457942 -0.1826811571933151 -0.1826811571933151 -0.1826811571933151 -0.1826811571933151 -0.1201303289067314 -0.1201303289067314 
-0.1201303289067314 -0.1201303289067314 -0.05461533156087234 -0.05461533156087234 -0.05461533156087234 -0.05461533156087234 0.01686698908629735 0.01686698908629735 0.01686698908629735 
0.01686698908629735 0.09442196602103781 0.09442196602103781 0.09442196602103781 0.09442196602103781 0.173525972029509 0.173525972029509 0.173525972029509 0.173525972029509 
0.2484460190209987 0.2484460190209987 0.2484460190209987 0.2484460190209987 0.3159617790847171 0.3159617790847171 0.3159617790847171 0.3159617790847171 0.3758764899182017 
0.3758764899182017 0.3758764899182017 0.3758764899182017 0.4290547782749397 0.4290547782749397 0.4290547782749397 0.4290547782749397 0.475718854853812 0.475718854853812 
0.475718854853812 0.475718854853812 0.515266293625415 0.515266293625415 0.515266293625415 0.515266293625415 0.5468387438840718 0.5468387438840718 0.5468387438840718 
0.5468387438840718 0.5697730149270388 0.5697730149270388 0.5697730149270388 0.5697730149270388 0.5836840444562902 0.5836840444562902 0.5836840444562902 0.5836840444562902 
0.5883767222576484 0.5883767222576484 0.5883767222576484 0.5883767222576484 0.5837922158675762 0.5837922158675762 0.5837922158675762 0.5837922158675762 0.5700039987705795 