Title = Result/Post/Linear_Advection_2D/FVM/MLP_u1_Least_Square/Sine_Wave_2D/Quad50/
FileType = Solution
Variables = q
Zone T = Result/Post/Linear_Advection_2D/FVM/MLP_u1_Least_Square/Sine_Wave_2D/Quad50/
ZoneType = FETriangle
Nodes = 10000
Elements = 5000
DataPacking = Block
StrandID = 6
SolutionTime = 0.5
0.1173456988439742 0.1173456988439742 0.1173456988439742 0.1173456988439742 0.1900517272799245 0.1900517272799245 0.1900517272799245 0.1900517272799245 0.2961008397242557 0.2961008397242557 
0.2961008397242557 0.2961008397242557 0.4059900971951217 0.4059900971951217 0.4059900971951217 0.4059900971951217 0.5114577256276926 0.5114577256276926 0.5114577256276926 
0.5114577256276926 0.6093123702885979 0.6093123702885979 0.6093123702885979 0.6093123702885979 0.6976541281607226 0.6976541281607226 0.6976541281607226 0.6976541281607226 
0.7750090896165402 0.7750090896165402 0.7750090896165402 0.7750090896165402 0.8401423296132611 0.8401423296132611 0.8401423296132611 0.8401423296132611 0.8920184158865032 
0.8920184158865032 0.8920184158865032 0.8920184158865032 0.9298067672833543 0.9298067672833543 0.9298067672833543 0.9298067672833543 0.9529034099390975 0.9529034099390975 
0.9529034099390975 0.9529034099390975 0.9609496981275171 0.9609496981275171 0.9609496981275171 0.9609496981275171 0.9539213494348876 0.9539213494348876 0.9539213494348876 
0.9539213494348876 0.9318807364469288 0.9318807364469288 0.9318807364469288 0.9318807364469288 0.8951223029299449 0.8951223029299449 0.8951223029299449 0.8951223029299449 
0.8441779824075004 0.8441779824075004 0.8441779824075004 0.8441779824075004 0.7798717423409893 0.7798717423409893 0.7798717423409893 0.7798717423409893 0.7034012694580026 
0.7034012694580026 0.7034012694580026 0.7034012694580026 0.6164062665517359 0.6164062665517359 0.6164062665517359 0.6164062665517359 0.5208818983544609 0.5208818983544609 
0.5208818983544609 0.5208818983544609 0.4188526358221681 0.4188526358221681 0.4188526358221681 0.4188526358221681 0.3118898922177766 0.3118898922177766 0.3118898922177766 
0.3118898922177766 0.2007617931478564 0.2007617931478564 0.2007617931478564 0.2007617931478564 0.08553555048082158 0.08553555048082158 0.08553555048082158 0.08553555048082158 
-0.03378361804962011 -0.03378361804962011 -0.03378361804962011 -0.03378361804962011 -0.1563734598935312 -0.1563734598935312 -0.1563734598935312 -0.1563734598935312 -0.2800064622068608 
-0.2800064622068608 -0.2800064622068608 -0.2800064622068608 -0.4011578088287804 -0.4011578088287804 -0.4011578088287804 -0.4011578088287804 -0.51578970337966 -0.51578970337966 
-0.51578970337966 -0.51578970337966 -0.6203706217840779 -0.6203706217840779 -0.6203706217840779 -0.6203706217840779 -0.7125744302054831 -0.7125744302054831 -0.7125744302054831 
-0.7125744302054831 -0.7913544858911103 -0.7913544858911103 -0.7913544858911103 -0.7913544858911103 -0.8564870568891862 -0.8564870568891862 -0.8564870568891862 -0.8564870568891862 
-0.9079489832988898 -0.9079489832988898 -0.9079489832988898 -0.9079489832988898 -0.9455095549547412 -0.9455095549547412 -0.9455095549547412 -0.9455095549547412 -0.9686786629787079 
-0.9686786629787079 -0.9686786629787079 -0.9686786629787079 -0.9769049541301089 -0.9769049541301089 -0.9769049541301089 -0.9769049541301089 -0.9699058071921539 -0.9699058071921539 
-0.9699058071921539 -0.9699058071921539 -0.9475869326111135 -0.9475869326111135 -0.9475869326111135 -0.9475869326111135 -0.9102254396881159 -0.9102254396881159 -0.9102254396881159 
-0.9102254396881159 -0.8584239809926051 -0.8584239809926051 -0.8584239809926051 -0.8584239809926051 -0.793053049965359 -0.793053049965359 -0.793053049965359 -0.793053049965359 
-0.7151648223616225 -0.7151648223616225 -0.7151648223616225 -0.7151648223616225 -0.6260702404647642 -0.6260702404647642 -0.6260702404647642 -0.6260702404647642 -0.5268564760120402 
-0.5268564760120402 -0.5268564760120402 -0.5268564760120402 -0.4204818394821129 -0.4204818394821129 -0.4204818394821129 -0.4204818394821129 -0.3024276968860082 -0.3024276968860082 
-0.3024276968860082 -0.3024276968860082 -0.2016549755875264 -0.2016549755875264 -0.2016549755875264 -0.2016549755875264 -0.002800265179686445 -0.002800265179686445 -0.002800265179686445 
-0.002800265179686445 0.1156292311107735 0.1156292311107735 0.1156292311107735 0.1156292311107735 0.1877447043774201 0.1877447043774201 0.1877447043774201 0.1877447043774201 
0.2922190722189882 0.2922190722189882 0.2922190722189882 0.2922190722189882 0.4004558058220994 0.4004558058220994 0.4004558058220994 0.4004558058220994 0.5043703378052141 
0.5043703378052141 0.5043703378052141 0.5043703378052141 0.6008180155759721 0.6008180155759721 0.6008180155759721 0.6008180155759721 0.6879146264150595 0.6879146264150595 
0.6879146264150595 0.6879146264150595 0.7641956429221972 0.7641956429221972 0.7641956429221972 0.7641956429221972 0.8284347820234224 0.8284347820234224 0.8284347820234224 
0.8284347820234224 0.87960615295995 0.87960615295995 0.87960615295995 0.87960615295995 0.9168849222826642 0.9168849222826642 0.9168849222826642 0.9168849222826642 
0.9396722814841554 0.9396722814841554 0.9396722814841554 0.9396722814841554 0.9476335774047824 0.9476335774047824 0.9476335774047824 0.9476335774047824 0.9406911161935471 
0.9406911161935471 0.9406911161935471 0.9406911161935471 0.9189488573415974 0.9189488573415974 0.9189488573415974 0.9189488573415974 0.8826972077219004 0.8826972077219004 
0.8826972077219004 0.8826972077219004 0.8324606634247369 0.8324606634247369 0.8324606634247369 0.8324606634247369 0.7690490178124696 0.7690490178124696 0.7690490178124696 
0.7690490178124696 0.6936433954937252 0.6936433954937252 0.6936433954937252 0.6936433954937252 0.607859176378948 0.607859176378948 0.607859176378948 0.607859176378948 
0.5136615769486576 0.5136615769486576 0.5136615769486576 0.5136615769486576 0.4130454680924807 0.4130454680924807 0.4130454680924807 0.4130454680924807 0.3075615564199088 
0.3075615564199088 0.3075615564199088 0.3075615564199088 0.1979709311610174 0.1979709311610174 0.1979709311610174 0.1979709311610174 0.08434380176542236 0.08434380176542236 
0.08434380176542236 0.08434380176542236 -0.03331327633415038 -0.03331327633415038 -0.03331327633415038 -0.03331327633415038 -0.1541918260545646 -0.1541918260545646 -0.1541918260545646 
-0.1541918260545646 -0.2760999525281311 -0.2760999525281311 -0.2760999525281311 -0.2760999525281311 -0.3955657599263693 -0.3955657599263693 -0.3955657599263693 -0.3955657599263693 
-0.5086083699718 -0.5086083699718 -0.5086083699718 -0.5086083699718 -0.6117429098624628 -0.6117429098624628 -0.6117429098624628 -0.6117429098624628 -0.7026720196534517 
-0.7026720196534517 -0.7026720196534517 -0.7026720196534517 -0.7803614125884235 -0.7803614125884235 -0.7803614125884235 -0.7803614125884235 -0.8445908184843722 -0.8445908184843722 
-0.8445908184843722 -0.8445908184843722 -0.8953403148769559 -0.8953403148769559 -0.8953403148769559 -0.8953403148769559 -0.9323821286193197 -0.9323821286193197 -0.9323821286193197 
-0.9323821286193197 -0.9552322564988224 -0.9552322564988224 -0.9552322564988224 -0.9552322564988224 -0.9633659187732908 -0.9633659187732908 -0.9633659187732908 -0.9633659187732908 
-0.9564511195027117 -0.9564511195027117 -0.9564511195027117 -0.9564511195027117 -0.9344348314446285 -0.9344348314446285 -0.9344348314446285 -0.9344348314446285 -0.8975896350407004 
-0.8975896350407004 -0.8975896350407004 -0.8975896350407004 -0.8465085892578847 -0.8465085892578847 -0.8465085892578847 -0.8465085892578847 -0.7820461998302763 -0.7820461998302763 
-0.7820461998302763 -0.7820461998302763 -0.705240641872698 -0.705240641872698 -0.705240641872698 -0.705240641872698 -0.617382947151384 -0.617382947151384 -0.617382947151384 
-0.617382947151384 -0.5195530126618513 -0.5195530126618513 -0.5195530126618513 -0.5195530126618513 -0.4146333893952716 -0.4146333893952716 -0.4146333893952716 -0.4146333893952716 
-0.298319884756949 -0.298319884756949 -0.298319884756949 -0.298319884756949 -0.1985185687209733 -0.1985185687209733 -0.1985185687209733 -0.1985185687209733 -0.003477942858850625 
-0.003477942858850625 -0.003477942858850625 -0.003477942858850625 0.1118201712909569 0.1118201712909569 0.1118201712909569 0.1118201712909569 0.1817436701768567 0.1817436701768567 
0.1817436701768567 0.1817436701768567 0.2830862487402158 0.2830862487402158 0.2830862487402158 0.2830862487402158 0.3879641064696677 0.3879641064696677 0.3879641064696677 
0.3879641064696677 0.4885913067791917 0.4885913067791917 0.4885913067791917 0.4885913067791917 0.5819592220327454 0.5819592220327454 0.5819592220327454 0.5819592220327454 
0.666268097658016 0.666268097658016 0.666268097658016 0.666268097658016 0.7401130494668458 0.7401130494668458 0.7401130494668458 0.7401130494668458 0.8023114576326407 
0.8023114576326407 0.8023114576326407 0.8023114576326407 0.8518704658997663 0.8518704658997663 0.8518704658997663 0.8518704658997663 0.8879891367820754 0.8879891367820754 
0.8879891367820754 0.8879891367820754 0.9100833663647669 0.9100833663647669 0.9100833663647669 0.9100833663647669 0.9178167606314487 0.9178167606314487 0.9178167606314487 
0.9178167606314487 0.9110962885495023 0.9110962885495023 0.9110962885495023 0.9110962885495023 0.890028691792365 0.890028691792365 0.890028691792365 0.890028691792365 
0.8549100957445083 0.8549100957445083 0.8549100957445083 0.8549100957445083 0.8062523116147543 0.8062523116147543 0.8062523116147543 0.8062523116147543 0.7448386757887914 
0.7448386757887914 0.7448386757887914 0.7448386757887914 0.6718107674375133 0.6718107674375133 0.6718107674375133 0.6718107674375133 0.5887300443104355 0.5887300443104355 
0.5887300443104355 0.5887300443104355 0.497497499607907 0.497497499607907 0.497497499607907 0.497497499607907 0.400045077837236 0.400045077837236 0.400045077837236 
0.400045077837236 0.2978776043242259 0.2978776043242259 0.2978776043242259 0.2978776043242259 0.1917367284402523 0.1917367284402523 0.1917367284402523 0.1917367284402523 
0.08169337498288824 0.08169337498288824 0.08169337498288824 0.08169337498288824 -0.03224743388402539 -0.03224743388402539 -0.03224743388402539 -0.03224743388402539 -0.1493080233781354 
-0.1493080233781354 -0.1493080233781354 -0.1493080233781354 -0.2673715775376301 -0.2673715775376301 -0.2673715775376301 -0.2673715775376301 -0.383078318447141 -0.383078318447141 
-0.383078318447141 -0.383078318447141 -0.4925705610756373 -0.4925705610756373 -0.4925705610756373 -0.4925705610756373 -0.5924678608356524 -0.5924678608356524 -0.5924678608356524 
-0.5924678608356524 -0.680540401640753 -0.680540401640753 -0.680540401640753 -0.680540401640753 -0.7557848932265437 -0.7557848932265437 -0.7557848932265437 -0.7557848932265437 
-0.8179903291553552 -0.8179903291553552 -0.8179903291553552 -0.8179903291553552 -0.867142693724178 -0.867142693724178 -0.867142693724178 -0.867142693724178 -0.9030259505378631 
-0.9030259505378631 -0.9030259505378631 -0.9030259505378631 -0.9251724674540855 -0.9251724674540855 -0.9251724674540855 -0.9251724674540855 -0.9330649713389214 -0.9330649713389214 
-0.9330649713389214 -0.9330649713389214 -0.9263656294101922 -0.9263656294101922 -0.9263656294101922 -0.9263656294101922 -0.9050292575606598 -0.9050292575606598 -0.9050292575606598 
-0.9050292575606598 -0.8693343172303015 -0.8693343172303015 -0.8693343172303015 -0.8693343172303015 -0.8198579076189679 -0.8198579076189679 -0.8198579076189679 -0.8198579076189679 
-0.7574255871659989 -0.7574255871659989 -0.7574255871659989 -0.7574255871659989 -0.6830406070902655 -0.6830406070902655 -0.6830406070902655 -0.6830406070902655 -0.59795172298031 
-0.59795172298031 -0.59795172298031 -0.59795172298031 -0.5032044954649 -0.5032044954649 -0.5032044954649 -0.5032044954649 -0.401589831660876 -0.401589831660876 
-0.401589831660876 -0.401589831660876 -0.2889394261760755 -0.2889394261760755 -0.2889394261760755 -0.2889394261760755 -0.1922889542897287 -0.1922889542897287 -0.1922889542897287 
-0.1922889542897287 -0.00342554152241599 -0.00342554152241599 -0.00342554152241599 -0.00342554152241599 0.1063620116184441 0.1063620116184441 0.1063620116184441 0.1063620116184441 
0.1728539889654514 0.1728539889654514 0.1728539889654514 0.1728539889654514 0.269323390336322 0.269323390336322 0.269323390336322 0.269323390336322 0.3691974967636291 
0.3691974967636291 0.3691974967636291 0.3691974967636291 0.4650123481600313 0.4650123481600313 0.4650123481600313 0.4650123481600313 0.5538887152723647 0.5538887152723647 
0.5538887152723647 0.5538887152723647 0.6341161259529937 0.6341161259529937 0.6341161259529937 0.6341161259529937 0.7043683082025903 0.7043683082025903 0.7043683082025903 
0.7043683082025903 0.7635320744227985 0.7635320744227985 0.7635320744227985 0.7635320744227985 0.8106738327887555 0.8106738327887555 0.8106738327887555 0.8106738327887555 
0.8450395844257078 0.8450395844257078 0.8450395844257078 0.8450395844257078 0.8660740838771589 0.8660740838771589 0.8660740838771589 0.8660740838771589 0.8734471419640217 
0.8734471419640217 0.8734471419640217 0.8734471419640217 0.8670560143132489 0.8670560143132489 0.8670560143132489 0.8670560143132489 0.8470019429022151 0.8470019429022151 
0.8470019429022151 0.8470019429022151 0.8135754340147147 0.8135754340147147 0.8135754340147147 0.8135754340147147 0.7672689955116195 0.7672689955116195 0.7672689955116195 
0.7672689955116195 0.7088282194899709 0.7088282194899709 0.7088282194899709 0.7088282194899709 0.6393363207624241 0.6393363207624241 0.6393363207624241 0.6393363207624241 
0.5602755745328379 0.5602755745328379 0.5602755745328379 0.5602755745328379 0.473452750641862 0.473452750641862 0.473452750641862 0.473452750641862 0.3807069470261484 
0.3807069470261484 0.3807069470261484 0.3807069470261484 0.2834739529792701 0.2834739529792701 0.2834739529792701 0.2834739529792701 0.1824645841594188 0.1824645841594188 
0.1824645841594188 0.1824645841594188 0.07774923248102825 0.07774923248102825 0.07774923248102825 0.07774923248102825 -0.03066921258792453 -0.03066921258792453 -0.03066921258792453 
-0.03066921258792453 -0.142056807335472 -0.142056807335472 -0.142056807335472 -0.142056807335472 -0.2544056939952916 -0.2544056939952916 -0.2544056939952916 -0.2544056939952916 
-0.3645213210695033 -0.3645213210695033 -0.3645213210695033 -0.3645213210695033 -0.468729858208957 -0.468729858208957 -0.468729858208957 -0.468729858208957 -0.5638083946550476 
-0.5638083946550476 -0.5638083946550476 -0.5638083946550476 -0.647629701631499 -0.647629701631499 -0.647629701631499 -0.647629701631499 -0.7192370980504703 -0.7192370980504703 
-0.7192370980504703 -0.7192370980504703 -0.7784318265378706 -0.7784318265378706 -0.7784318265378706 -0.7784318265378706 -0.8252061066911793 -0.8252061066911793 -0.8252061066911793 
-0.8252061066911793 -0.8593604976879117 -0.8593604976879117 -0.8593604976879117 -0.8593604976879117 -0.8804507065827591 -0.8804507065827591 -0.8804507065827591 -0.8804507065827591 
-0.8879756958572257 -0.8879756958572257 -0.8879756958572257 -0.8879756958572257 -0.8816017443158384 -0.8816017443158384 -0.8816017443158384 -0.8816017443158384 -0.8612876211579232 
-0.8612876211579232 -0.8612876211579232 -0.8612876211579232 -0.8273085522343364 -0.8273085522343364 -0.8273085522343364 -0.8273085522343364 -0.7802196138823146 -0.7802196138823146 
-0.7802196138823146 -0.7802196138823146 -0.7208064366398294 -0.7208064366398294 -0.7208064366398294 -0.7208064366398294 -0.65002103929119 -0.65002103929119 -0.65002103929119 
-0.65002103929119 -0.5690493421206763 -0.5690493421206763 -0.5690493421206763 -0.5690493421206763 -0.4788862083698802 -0.4788862083698802 -0.4788862083698802 -0.4788862083698802 
-0.3821847693574432 -0.3821847693574432 -0.3821847693574432 -0.3821847693574432 -0.2749877676568838 -0.2749877676568838 -0.2749877676568838 -0.2749877676568838 -0.1830096537366896 
-0.1830096537366896 -0.1830096537366896 -0.1830096537366896 -0.003274324299528855 -0.003274324299528855 -0.003274324299528855 -0.003274324299528855 0.09927373125753515 0.09927373125753515 
0.09927373125753515 0.09927373125753515 0.1613172064341442 0.1613172064341442 0.1613172064341442 0.1613172064341442 0.2513407464247772 0.2513407464247772 0.2513407464247772 
0.2513407464247772 0.3445751958158629 0.3445751958158629 0.3445751958158629 0.3445751958158629 0.4340483821392541 0.4340483821392541 0.4340483821392541 0.4340483821392541 
0.5170528736290224 0.5170528736290224 0.5170528736290224 0.5170528736290224 0.5919750613665058 0.5919750613665058 0.5919750613665058 0.5919750613665058 0.657568099656866 
0.657568099656866 0.657568099656866 0.657568099656866 0.7127925873534369 0.7127925873534369 0.7127925873534369 0.7127925873534369 0.7567839875227489 0.7567839875227489 
0.7567839875227489 0.7567839875227489 0.7888491532830488 0.7888491532830488 0.7888491532830488 0.7888491532830488 0.8084775151902397 0.8084775151902397 0.8084775151902397 
0.8084775151902397 0.8153593418250251 0.8153593418250251 0.8153593418250251 0.8153593418250251 0.8093919868653181 0.8093919868653181 0.8093919868653181 0.8093919868653181 
0.7906683621053694 0.7906683621053694 0.7906683621053694 0.7906683621053694 0.7594632493641131 0.7594632493641131 0.7594632493641131 0.7594632493641131 0.7162395023691031 
0.7162395023691031 0.7162395023691031 0.7162395023691031 0.6616923122890599 0.6616923122890599 0.6616923122890599 0.6616923122890599 0.5968291834973917 0.5968291834973917 
0.5968291834973917 0.5968291834973917 0.5230298477896744 0.5230298477896744 0.5230298477896744 0.5230298477896744 0.4419787800850022 0.4419787800850022 0.4419787800850022 
0.4419787800850022 0.3553939756276172 0.3553939756276172 0.3553939756276172 0.3553939756276172 0.2646203271981464 0.2646203271981464 0.2646203271981464 0.2646203271981464 
0.1703271520197785 0.1703271520197785 0.1703271520197785 0.1703271520197785 0.07258332417616621 0.07258332417616621 0.07258332417616621 0.07258332417616621 -0.0286106682293619 
-0.0286106682293619 -0.0286106682293619 -0.0286106682293619 -0.1325765109421349 -0.1325765109421349 -0.1325765109421349 -0.1325765109421349 -0.2374471070661952 -0.2374471070661952 
-0.2374471070661952 -0.2374471070661952 -0.340243323660165 -0.340243323660165 -0.340243323660165 -0.340243323660165 -0.4375327088793586 -0.4375327088793586 -0.4375327088793586 
-0.4375327088793586 -0.5263002942265422 -0.5263002942265422 -0.5263002942265422 -0.5263002942265422 -0.6045546998906232 -0.6045546998906232 -0.6045546998906232 -0.6045546998906232 
-0.671400674185199 -0.671400674185199 -0.671400674185199 -0.671400674185199 -0.7266542750305853 -0.7266542750305853 -0.7266542750305853 -0.7266542750305853 -0.7703130972157993 
-0.7703130972157993 -0.7703130972157993 -0.7703130972157993 -0.8021969228813762 -0.8021969228813762 -0.8021969228813762 -0.8021969228813762 -0.8218932591347043 -0.8218932591347043 
-0.8218932591347043 -0.8218932591347043 -0.8289286531909907 -0.8289286531909907 -0.8289286531909907 -0.8289286531909907 -0.8229830712648649 -0.8229830712648649 -0.8229830712648649 
-0.8229830712648649 -0.8040170527490524 -0.8040170527490524 -0.8040170527490524 -0.8040170527490524 -0.7722929606640994 -0.7722929606640994 -0.7722929606640994 -0.7722929606640994 
-0.7283338606687125 -0.7283338606687125 -0.7283338606687125 -0.7283338606687125 -0.6728737680063978 -0.6728737680063978 -0.6728737680063978 -0.6728737680063978 -0.6067994013802873 
-0.6067994013802873 -0.6067994013802873 -0.6067994013802873 -0.5312158932312617 -0.5312158932312617 -0.5312158932312617 -0.5312158932312617 -0.4470514840712983 -0.4470514840712983 
-0.4470514840712983 -0.4470514840712983 -0.356782499377542 -0.356782499377542 -0.356782499377542 -0.356782499377542 -0.2567158617957419 -0.2567158617957419 -0.2567158617957419 
-0.2567158617957419 -0.170858900738352 -0.170858900738352 -0.170858900738352 -0.170858900738352 -0.003071752806766842 -0.003071752806766842 -0.003071752806766842 -0.003071752806766842 
0.09062564262057798 0.09062564262057798 0.09062564262057798 0.09062564262057798 0.1472663159598577 0.1472663159598577 0.1472663159598577 0.1472663159598577 0.2294376799634567 
0.2294376799634567 0.2294376799634567 0.2294376799634567 0.3145390892773317 0.3145390892773317 0.3145390892773317 0.3145390892773317 0.3962210839270837 0.3962210839270837 
0.3962210839270837 0.3962210839270837 0.4720162522439262 0.4720162522439262 0.4720162522439262 0.4720162522439262 0.5404447076661572 0.5404447076661572 0.5404447076661572 
0.5404447076661572 0.6003567558543336 0.6003567558543336 0.6003567558543336 0.6003567558543336 0.6507935165915977 0.6507935165915977 0.6507935165915977 0.6507935165915977 
0.6909618348317049 0.6909618348317049 0.6909618348317049 0.6909618348317049 0.7202322526996074 0.7202322526996074 0.7202322526996074 0.7202322526996074 0.7381451866840757 
0.7381451866840757 0.7381451866840757 0.7381451866840757 0.7444215700807215 0.7444215700807215 0.7444215700807215 0.7444215700807215 0.7389679933203893 0.7389679933203893 
0.7389679933203893 0.7389679933203893 0.7218699190556462 0.7218699190556462 0.7218699190556462 0.7218699190556462 0.6933804407946773 0.6933804407946773 0.6933804407946773 
0.6933804407946773 0.6539233911274848 0.6539233911274848 0.6539233911274848 0.6539233911274848 0.6041317062418019 0.6041317062418019 0.6041317062418019 0.6041317062418019 
0.5449211368799378 0.5449211368799378 0.5449211368799378 0.5449211368799378 0.477547013962562 0.477547013962562 0.477547013962562 0.477547013962562 0.4035450046636705 
0.4035450046636705 0.4035450046636705 0.4035450046636705 0.3244852402843446 0.3244852402843446 0.3244852402843446 0.3244852402843446 0.2416010344442918 0.2416010344442918 
0.2416010344442918 0.2416010344442918 0.1555100202704098 0.1555100202704098 0.1555100202704098 0.1555100202704098 0.06627841976950161 0.06627841976950161 0.06627841976950161 
0.06627841976950161 -0.02609610454401508 -0.02609610454401508 -0.02609610454401508 -0.02609610454401508 -0.121002020829737 -0.121002020829737 -0.121002020829737 -0.121002020829737 
-0.2167425712939121 -0.2167425712939121 -0.2167425712939121 -0.2167425712939121 -0.3106007199203801 -0.3106007199203801 -0.3106007199203801 -0.3106007199203801 -0.399438976026415 
-0.399438976026415 -0.399438976026415 -0.399438976026415 -0.4804973913094264 -0.4804973913094264 -0.4804973913094264 -0.4804973913094264 -0.5519517123763986 -0.5519517123763986 
-0.5519517123763986 -0.5519517123763986 -0.6129824572464121 -0.6129824572464121 -0.6129824572464121 -0.6129824572464121 -0.6634234904840208 -0.6634234904840208 -0.6634234904840208 
-0.6634234904840208 -0.7032770826511052 -0.7032770826511052 -0.7032770826511052 -0.7032770826511052 -0.7323839654609423 -0.7323839654609423 -0.7323839654609423 -0.7323839654609423 
-0.7503702818759025 -0.7503702818759025 -0.7503702818759025 -0.7503702818759025 -0.7568011272613112 -0.7568011272613112 -0.7568011272613112 -0.7568011272613112 -0.7513790738978546 
-0.7513790738978546 -0.7513790738978546 -0.7513790738978546 -0.7340658418611496 -0.7340658418611496 -0.7340658418611496 -0.7340658418611496 -0.7051029060283139 -0.7051029060283139 
-0.7051029060283139 -0.7051029060283139 -0.6649704087325514 -0.6649704087325514 -0.6649704087325514 -0.6649704087325514 -0.6143389940153529 -0.6143389940153529 -0.6143389940153529 
-0.6143389940153529 -0.5540171733364121 -0.5540171733364121 -0.5540171733364121 -0.5540171733364121 -0.4850129090478419 -0.4850129090478419 -0.4850129090478419 -0.4850129090478419 
-0.4081732997353066 -0.4081732997353066 -0.4081732997353066 -0.4081732997353066 -0.3257601805022727 -0.3257601805022727 -0.3257601805022727 -0.3257601805022727 -0.2343991709245101 
-0.2343991709245101 -0.2343991709245101 -0.2343991709245101 -0.156017274146843 -0.156017274146843 -0.156017274146843 -0.156017274146843 -0.002828285252331186 -0.002828285252331186 
-0.002828285252331186 -0.002828285252331186 0.08054825702251228 0.08054825702251228 0.08054825702251228 0.08054825702251228 0.1308938943655903 0.1308938943655903 0.1308938943655903 
0.1308938943655903 0.2039342020326136 0.2039342020326136 0.2039342020326136 0.2039342020326136 0.2795720248498268 0.2795720248498268 0.2795720248498268 0.2795720248498268 
0.3521676252714905 0.3521676252714905 0.3521676252714905 0.3521676252714905 0.4195370894130397 0.4195370894130397 0.4195370894130397 0.4195370894130397 0.4803702131773177 
0.4803702131773177 0.4803702131773177 0.4803702131773177 0.5336434210573104 0.5336434210573104 0.5336434210573104 0.5336434210573104 0.5784975884379456 0.5784975884379456 
0.5784975884379456 0.5784975884379456 0.6142203382453283 0.6142203382453283 0.6142203382453283 0.6142203382453283 0.6402484993621382 0.6402484993621382 0.6402484993621382 
0.6402484993621382 0.6561742024796378 0.6561742024796378 0.6561742024796378 0.6561742024796378 0.6617517608312183 0.6617517608312183 0.6617517608312183 0.6617517608312183 
0.6569004430049514 0.6569004430049514 0.6569004430049514 0.6569004430049514 0.641698803401632 0.641698803401632 0.641698803401632 0.641698803401632 0.6163745993508682 
0.6163745993508682 0.6163745993508682 0.6163745993508682 0.5813059433323997 0.5813059433323997 0.5813059433323997 0.5813059433323997 0.5370541104739648 0.5370541104739648 
0.5370541104739648 0.5370541104739648 0.4844293063499067 0.4844293063499067 0.4844293063499067 0.4844293063499067 0.4245429577451268 0.4245429577451268 0.4245429577451268 
0.4245429577451268 0.3587577163319544 0.3587577163319544 0.3587577163319544 0.3587577163319544 0.2884710740389241 0.2884710740389241 0.2884710740389241 0.2884710740389241 
0.2147852589197032 0.2147852589197032 0.2147852589197032 0.2147852589197032 0.1382561135445205 0.1382561135445205 0.1382561135445205 0.1382561135445205 0.05894536269166126 
0.05894536269166126 0.05894536269166126 0.05894536269166126 -0.02315308441199367 -0.02315308441199367 -0.02315308441199367 -0.02315308441199367 -0.1075046949166768 -0.1075046949166768 
-0.1075046949166768 -0.1075046949166768 -0.1926095690671933 -0.1926095690671933 -0.1926095690671933 -0.1926095690671933 -0.2760546142898784 -0.2760546142898784 -0.2760546142898784 
-0.2760546142898784 -0.3550455068386862 -0.3550455068386862 -0.3550455068386862 -0.3550455068386862 -0.42711989197556 -0.42711989197556 -0.42711989197556 -0.42711989197556 
-0.4906491966130931 -0.4906491966130931 -0.4906491966130931 -0.4906491966130931 -0.5449032206400662 -0.5449032206400662 -0.5449032206400662 -0.5449032206400662 -0.5897370977012528 
-0.5897370977012528 -0.5897370977012528 -0.5897370977012528 -0.6251577650003712 -0.6251577650003712 -0.6251577650003712 -0.6251577650003712 -0.6510283639506917 -0.6510283639506917 
-0.6510283639506917 -0.6510283639506917 -0.6670189698140863 -0.6670189698140863 -0.6670189698140863 -0.6670189698140863 -0.6727417934900287 -0.6727417934900287 -0.6727417934900287 
-0.6727417934900287 -0.6679291067558439 -0.6679291067558439 -0.6679291067558439 -0.6679291067558439 -0.6525446203497736 -0.6525446203497736 -0.6525446203497736 -0.6525446203497736 
-0.626803040909517 -0.626803040909517 -0.626803040909517 -0.626803040909517 -0.5911320742130395 -0.5911320742130395 -0.5911320742130395 -0.5911320742130395 -0.546128141838842 
-0.546128141838842 -0.546128141838842 -0.546128141838842 -0.4925095060640894 -0.4925095060640894 -0.4925095060640894 -0.4925095060640894 -0.4311718950845079 -0.4311718950845079 
-0.4311718950845079 -0.4311718950845079 -0.3628679111617529 -0.3628679111617529 -0.3628679111617529 -0.3628679111617529 -0.2896104503383352 -0.2896104503383352 -0.2896104503383352 
-0.2896104503383352 -0.2083932543996446 -0.2083932543996446 -0.2083932543996446 -0.2083932543996446 -0.1387268152879519 -0.1387268152879519 -0.1387268152879519 -0.1387268152879519 
-0.002540393051202149 -0.002540393051202149 -0.002540393051202149 -0.002540393051202149 0.06925875997175143 0.06925875997175143 0.06925875997175143 0.06925875997175143 0.1125340284045871 
0.1125340284045871 0.1125340284045871 0.1125340284045871 0.1753375229639286 0.1753375229639286 0.1753375229639286 0.1753375229639286 0.2403767210870803 0.2403767210870803 
0.2403767210870803 0.2403767210870803 0.3027952792001767 0.3027952792001767 0.3027952792001767 0.3027952792001767 0.3607173091032101 0.3607173091032101 0.3607173091032101 
0.3607173091032101 0.4130217604402144 0.4130217604402144 0.4130217604402144 0.4130217604402144 0.4588328356813771 0.4588328356813771 0.4588328356813771 0.4588328356813771 
0.4974119925367212 0.4974119925367212 0.4974119925367212 0.4974119925367212 0.528143213247336 0.528143213247336 0.528143213247336 0.528143213247336 0.5505378512729712 
0.5505378512729712 0.5505378512729712 0.5505378512729712 0.5642421830201935 0.5642421830201935 0.5642421830201935 0.5642421830201935 0.5690438404007894 0.5690438404007894 
0.5690438404007894 0.5690438404007894 0.5648739376046858 0.5648739376046858 0.5648739376046858 0.5648739376046858 0.5518020373084813 0.5518020373084813 0.5518020373084813 
0.5518020373084813 0.5300268108606518 0.5300268108606518 0.5300268108606518 0.5300268108606518 0.4998755505719115 0.4998755505719115 0.4998755505719115 0.4998755505719115 
0.4618308654497854 0.4618308654497854 0.4618308654497854 0.4618308654497854 0.4165868581467217 0.4165868581467217 0.4165868581467217 0.4165868581467217 0.3650954698008646 
0.3650954698008646 0.3650954698008646 0.3650954698008646 0.3085262149600005 0.3085262149600005 0.3085262149600005 0.3085262149600005 0.2480826026144075 0.2480826026144075 
0.2480826026144075 0.2480826026144075 0.1847182647393221 0.1847182647393221 0.1847182647393221 0.1847182647393221 0.1189174579280055 0.1189174579280055 0.1189174579280055 
0.1189174579280055 0.05073483141104696 0.05073483141104696 0.05073483141104696 0.05073483141104696 -0.01984070510175158 -0.01984070510175158 -0.01984070510175158 -0.01984070510175158 
-0.09236017238317434 -0.09236017238317434 -0.09236017238317434 -0.09236017238317434 -0.1655426338130718 -0.1655426338130718 -0.1655426338130718 -0.1655426338130718 -0.2373141526909788 