Title = Result/Post/Linear_Advection_2D/FVM/MLP_u1_Least_Square/Sine_Wave_2D/Quad50/
FileType = Solution
Variables = q
Zone T = Result/Post/Linear_Advection_2D/FVM/MLP_u1_Least_Square/Sine_Wave_2D/Quad50/
ZoneType = FETriangle
Nodes = 10000
Elements = 5000
DataPacking = Block
StrandID = 19
SolutionTime = 1.8
0.6306758675453039 0.6306758675453039 0.6306758675453039 0.6306758675453039 0.6380691607280976 0.6380691607280976 0.6380691607280976 0.6380691607280976 0.6415792332654978 0.6415792332654978 
0.6415792332654978 0.6415792332654978 0.6366719049571343 0.6366719049571343 0.6366719049571343 0.6366719049571343 0.6222344869286245 0.6222344869286245 0.6222344869286245 
0.6222344869286245 0.5982319250476421 0.5982319250476421 0.5982319250476421 0.5982319250476421 0.5649613822934283 0.5649613822934283 0.5649613822934283 0.5649613822934283 
0.5228928992689684 0.5228928992689684 0.5228928992689684 0.5228928992689684 0.4726436735403928 0.4726436735403928 0.4726436735403928 0.4726436735403928 0.4149755050621031 
0.4149755050621031 0.4149755050621031 0.4149755050621031 0.3507731999139397 0.3507731999139397 0.3507731999139397 0.3507731999139397 0.2810131811025381 0.2810131811025381 
0.2810131811025381 0.2810131811025381 0.2067495172303962 0.2067495172303962 0.2067495172303962 0.2067495172303962 0.1291292887787936 0.1291292887787936 0.1291292887787936 
0.1291292887787936 0.04940822049444206 0.04940822049444206 0.04940822049444206 0.04940822049444206 -0.03107603854345967 -0.03107603854345967 -0.03107603854345967 -0.03107603854345967 
-0.1109780531363755 -0.1109780531363755 -0.1109780531363755 -0.1109780531363755 -0.1890212196316479 -0.1890212196316479 -0.1890212196316479 -0.1890212196316479 -0.2640263104285951 
-0.2640263104285951 -0.2640263104285951 -0.2640263104285951 -0.3348866649612309 -0.3348866649612309 -0.3348866649612309 -0.3348866649612309 -0.4005314843464096 -0.4005314843464096 
-0.4005314843464096 -0.4005314843464096 -0.4599212495889045 -0.4599212495889045 -0.4599212495889045 -0.4599212495889045 -0.5120830192590169 -0.5120830192590169 -0.5120830192590169 
-0.5120830192590169 -0.5561594015596334 -0.5561594015596334 -0.5561594015596334 -0.5561594015596334 -0.5914420172200272 -0.5914420172200272 -0.5914420172200272 -0.5914420172200272 
-0.6173800445691975 -0.6173800445691975 -0.6173800445691975 -0.6173800445691975 -0.6335725133287589 -0.6335725133287589 -0.6335725133287589 -0.6335725133287589 -0.6397520017560094 
-0.6397520017560094 -0.6397520017560094 -0.6397520017560094 -0.6358785710901745 -0.6358785710901745 -0.6358785710901745 -0.6358785710901745 -0.6220047621250817 -0.6220047621250817 
-0.6220047621250817 -0.6220047621250817 -0.5983742307968953 -0.5983742307968953 -0.5983742307968953 -0.5983742307968953 -0.565415810183899 -0.565415810183899 -0.565415810183899 
-0.565415810183899 -0.5237241833682136 -0.5237241833682136 -0.5237241833682136 -0.5237241833682136 -0.4740344857366051 -0.4740344857366051 -0.4740344857366051 -0.4740344857366051 
-0.4171937087412037 -0.4171937087412037 -0.4171937087412037 -0.4171937087412037 -0.3541206028442854 -0.3541206028442854 -0.3541206028442854 -0.3541206028442854 -0.2857650008859538 
-0.2857650008859538 -0.2857650008859538 -0.2857650008859538 -0.2130761781798668 -0.2130761781798668 -0.2130761781798668 -0.2130761781798668 -0.1369907078339067 -0.1369907078339067 
-0.1369907078339067 -0.1369907078339067 -0.05844562448531108 -0.05844562448531108 -0.05844562448531108 -0.05844562448531108 0.02158573868112736 0.02158573868112736 0.02158573868112736 
0.02158573868112736 0.1020458983090745 0.1020458983090745 0.1020458983090745 0.1020458983090745 0.1817543370338276 0.1817543370338276 0.1817543370338276 0.1817543370338276 
0.2593866972064984 0.2593866972064984 0.2593866972064984 0.2593866972064984 0.3335185264567074 0.3335185264567074 0.3335185264567074 0.3335185264567074 0.4026348298293994 
0.4026348298293994 0.4026348298293994 0.4026348298293994 0.4653374469532076 0.4653374469532076 0.4653374469532076 0.4653374469532076 0.5205095494814852 0.5205095494814852 
0.5205095494814852 0.5205095494814852 0.564713345207251 0.564713345207251 0.564713345207251 0.564713345207251 0.6145319849307664 0.6145319849307664 0.6145319849307664 
0.6145319849307664 0.6825001199493191 0.6825001199493191 0.6825001199493191 0.6825001199493191 0.690176171952861 0.690176171952861 0.690176171952861 0.690176171952861 
0.6940718465188931 0.6940718465188931 0.6940718465188931 0.6940718465188931 0.688835910618384 0.688835910618384 0.688835910618384 0.688835910618384 0.6732706158088284 
0.6732706158088284 0.6732706158088284 0.6732706158088284 0.6473285881680759 0.6473285881680759 0.6473285881680759 0.6473285881680759 0.611340333094339 0.611340333094339 
0.611340333094339 0.611340333094339 0.5658194572332731 0.5658194572332731 0.5658194572332731 0.5658194572332731 0.5114418186211317 0.5114418186211317 0.5114418186211317 
0.5114418186211317 0.4490473860198257 0.4490473860198257 0.4490473860198257 0.4490473860198257 0.3796108277414323 0.3796108277414323 0.3796108277414323 0.3796108277414323 
0.3041902329550304 0.3041902329550304 0.3041902329550304 0.3041902329550304 0.2239024705289764 0.2239024705289764 0.2239024705289764 0.2239024705289764 0.1399527617997905 
0.1399527617997905 0.1399527617997905 0.1399527617997905 0.05367885018531451 0.05367885018531451 0.05367885018531451 0.05367885018531451 -0.03346126176514752 -0.03346126176514752 
-0.03346126176514752 -0.03346126176514752 -0.1199789718499935 -0.1199789718499935 -0.1199789718499935 -0.1199789718499935 -0.204463619545467 -0.204463619545467 -0.204463619545467 
-0.204463619545467 -0.2856317428842251 -0.2856317428842251 -0.2856317428842251 -0.2856317428842251 -0.362298247557966 -0.362298247557966 -0.362298247557966 -0.362298247557966 
-0.4333213439978255 -0.4333213439978255 -0.4333213439978255 -0.4333213439978255 -0.497584785516267 -0.497584785516267 -0.497584785516267 -0.497584785516267 -0.5540344364801998 
-0.5540344364801998 -0.5540344364801998 -0.5540344364801998 -0.601737409850858 -0.601737409850858 -0.601737409850858 -0.601737409850858 -0.6399237889490442 -0.6399237889490442 
-0.6399237889490442 -0.6399237889490442 -0.6679963612399789 -0.6679963612399789 -0.6679963612399789 -0.6679963612399789 -0.6855213223406463 -0.6855213223406463 -0.6855213223406463 
-0.6855213223406463 -0.6922311855109564 -0.6922311855109564 -0.6922311855109564 -0.6922311855109564 -0.6880427017884534 -0.6880427017884534 -0.6880427017884534 -0.6880427017884534 
-0.6730393296171158 -0.6730393296171158 -0.6730393296171158 -0.6730393296171158 -0.6474819269906851 -0.6474819269906851 -0.6474819269906851 -0.6474819269906851 -0.6118308081590064 
-0.6118308081590064 -0.6118308081590064 -0.6118308081590064 -0.5667275656031393 -0.5667275656031393 -0.5667275656031393 -0.5667275656031393 -0.5129682703698757 -0.5129682703698757 
-0.5129682703698757 -0.5129682703698757 -0.4514699904025224 -0.4514699904025224 -0.4514699904025224 -0.4514699904025224 -0.3832276667414264 -0.3832276667414264 -0.3832276667414264 
-0.3832276667414264 -0.3092700731107348 -0.3092700731107348 -0.3092700731107348 -0.3092700731107348 -0.2306252327942421 -0.2306252327942421 -0.2306252327942421 -0.2306252327942421 
-0.1483069008548298 -0.1483069008548298 -0.1483069008548298 -0.1483069008548298 -0.06332843532656948 -0.06332843532656948 -0.06332843532656948 -0.06332843532656948 0.02325849916180702 
0.02325849916180702 0.02325849916180702 0.02325849916180702 0.1103118129576743 0.1103118129576743 0.1103118129576743 0.1103118129576743 0.196556472608056 0.196556472608056 
0.196556472608056 0.196556472608056 0.2805606578884747 0.2805606578884747 0.2805606578884747 0.2805606578884747 0.3607843216434869 0.3607843216434869 0.3607843216434869 
0.3607843216434869 0.4355844984598392 0.4355844984598392 0.4355844984598392 0.4355844984598392 0.5034479157275923 0.5034479157275923 0.5034479157275923 0.5034479157275923 
0.5631877038270892 0.5631877038270892 0.5631877038270892 0.5631877038270892 0.6108717997562996 0.6108717997562996 0.6108717997562996 0.6108717997562996 0.6652477648272455 
0.6652477648272455 0.6652477648272455 0.6652477648272455 0.7506799059996131 0.7506799059996131 0.7506799059996131 0.7506799059996131 0.759019637568374 0.759019637568374 
0.759019637568374 0.759019637568374 0.7632173442936783 0.7632173442936783 0.7632173442936783 0.7632173442936783 0.757459934267666 0.757459934267666 0.757459934267666 
0.757459934267666 0.7403781547367729 0.7403781547367729 0.7403781547367729 0.7403781547367729 0.7118894836958064 0.7118894836958064 0.7118894836958064 0.7118894836958064 
0.6723348204633761 0.6723348204633761 0.6723348204633761 0.6723348204633761 0.6222733743049671 0.6222733743049671 0.6222733743049671 0.6222733743049671 0.5624630851810705 
0.5624630851810705 0.5624630851810705 0.5624630851810705 0.4938577009039475 0.4938577009039475 0.4938577009039475 0.4938577009039475 0.417551758482216 0.417551758482216 
0.417551758482216 0.417551758482216 0.3346958342857469 0.3346958342857469 0.3346958342857469 0.3346958342857469 0.2464673621886951 0.2464673621886951 0.2464673621886951 
0.2464673621886951 0.1541394420199387 0.1541394420199387 0.1541394420199387 0.1541394420199387 0.05917563299989928 0.05917563299989928 0.05917563299989928 0.05917563299989928 
-0.03677173828865827 -0.03677173828865827 -0.03677173828865827 -0.03677173828865827 -0.1319962348269363 -0.1319962348269363 -0.1319962348269363 -0.1319962348269363 -0.224908221213295 
-0.224908221213295 -0.224908221213295 -0.224908221213295 -0.3141114543249237 -0.3141114543249237 -0.3141114543249237 -0.3141114543249237 -0.3983507973528618 -0.3983507973528618 
-0.3983507973528618 -0.3983507973528618 -0.4764125811108553 -0.4764125811108553 -0.4764125811108553 -0.4764125811108553 -0.5470812220289786 -0.5470812220289786 -0.5470812220289786 
-0.5470812220289786 -0.6091833329166628 -0.6091833329166628 -0.6091833329166628 -0.6091833329166628 -0.6616718515617088 -0.6616718515617088 -0.6616718515617088 -0.6616718515617088 
-0.7036869691733847 -0.7036869691733847 -0.7036869691733847 -0.7036869691733847 -0.7345702356144914 -0.7345702356144914 -0.7345702356144914 -0.7345702356144914 -0.7538516030294409 
-0.7538516030294409 -0.7538516030294409 -0.7538516030294409 -0.7612439713359676 -0.7612439713359676 -0.7612439713359676 -0.7612439713359676 -0.7566503509392724 -0.7566503509392724 
-0.7566503509392724 -0.7566503509392724 -0.7401619821060879 -0.7401619821060879 -0.7401619821060879 -0.7401619821060879 -0.7120707951984518 -0.7120707951984518 -0.7120707951984518 
-0.7120707951984518 -0.6728798556999842 -0.6728798556999842 -0.6728798556999842 -0.6728798556999842 -0.6232916589264965 -0.6232916589264965 -0.6232916589264965 -0.6232916589264965 
-0.5641815809204762 -0.5641815809204762 -0.5641815809204762 -0.5641815809204762 -0.4965585610139132 -0.4965585610139132 -0.4965585610139132 -0.4965585610139132 -0.4215176551779775 
-0.4215176551779775 -0.4215176551779775 -0.4215176551779775 -0.3401912810216113 -0.3401912810216113 -0.3401912810216113 -0.3401912810216113 -0.2537110092858073 -0.2537110092858073 
-0.2537110092858073 -0.2537110092858073 -0.1631923106086694 -0.1631923106086694 -0.1631923106086694 -0.1631923106086694 -0.06974942376747735 -0.06974942376747735 -0.06974942376747735 
-0.06974942376747735 0.02546224663461296 0.02546224663461296 0.02546224663461296 0.02546224663461296 0.1211886444071812 0.1211886444071812 0.1211886444071812 0.1211886444071812 
0.2160297979416746 0.2160297979416746 0.2160297979416746 0.2160297979416746 0.3084128748550564 0.3084128748550564 0.3084128748550564 0.3084128748550564 0.3966450084574381 
0.3966450084574381 0.3966450084574381 0.3966450084574381 0.4789185242748147 0.4789185242748147 0.4789185242748147 0.4789185242748147 0.553568280062635 0.553568280062635 
0.553568280062635 0.553568280062635 0.6192796658250252 0.6192796658250252 0.6192796658250252 0.6192796658250252 0.6717711015637544 0.6717711015637544 0.6717711015637544 
0.6717711015637544 0.7314647206519724 0.7314647206519724 0.7314647206519724 0.7314647206519724 0.8124771019511494 0.8124771019511494 0.8124771019511494 0.8124771019511494 
0.8215329234428237 0.8215329234428237 0.8215329234428237 0.8215329234428237 0.8260433621309493 0.8260433621309493 0.8260433621309493 0.8260433621309493 0.819774661154826 
0.819774661154826 0.819774661154826 0.819774661154826 0.8012786070571543 0.8012786070571543 0.8012786070571543 0.8012786070571543 0.7704577241118675 0.7704577241118675 
0.7704577241118675 0.7704577241118675 0.7276608489920552 0.7276608489920552 0.7276608489920552 0.7276608489920552 0.6734848868935801 0.6734848868935801 0.6734848868935801 
0.6734848868935801 0.608767467403718 0.608767467403718 0.608767467403718 0.608767467403718 0.5345734378486849 0.5345734378486849 0.5345734378486849 0.5345734378486849 
0.4520974268233793 0.4520974268233793 0.4520974268233793 0.4520974268233793 0.3625388485904338 0.3625388485904338 0.3625388485904338 0.3625388485904338 0.2670850275737501 
0.2670850275737501 0.2670850275737501 0.2670850275737501 0.1670516116499894 0.1670516116499894 0.1670516116499894 0.1670516116499894 0.06404813542843162 0.06404813542843162 
0.06404813542843162 0.06404813542843162 -0.04002686408979095 -0.04002686408979095 -0.04002686408979095 -0.04002686408979095 -0.1432056042852758 -0.1432056042852758 -0.1432056042852758 
-0.1432056042852758 -0.2437193229631947 -0.2437193229631947 -0.2437193229631947 -0.2437193229631947 -0.3401054810915454 -0.3401054810915454 -0.3401054810915454 -0.3401054810915454 
-0.4311046082006912 -0.4311046082006912 -0.4311046082006912 -0.4311046082006912 -0.5154821270586665 -0.5154821270586665 -0.5154821270586665 -0.5154821270586665 -0.591942684576195 
-0.591942684576195 -0.591942684576195 -0.591942684576195 -0.6591878948633237 -0.6591878948633237 -0.6591878948633237 -0.6591878948633237 -0.7160427752944358 -0.7160427752944358 
-0.7160427752944358 -0.7160427752944358 -0.7615499276567397 -0.7615499276567397 -0.7615499276567397 -0.7615499276567397 -0.7949915772153516 -0.7949915772153516 -0.7949915772153516 
-0.7949915772153516 -0.8158674861151126 -0.8158674861151126 -0.8158674861151126 -0.8158674861151126 -0.823876206204502 -0.823876206204502 -0.823876206204502 -0.823876206204502 
-0.8189135221727728 -0.8189135221727728 -0.8189135221727728 -0.8189135221727728 -0.8010790987464851 -0.8010790987464851 -0.8010790987464851 -0.8010790987464851 -0.7706898180673414 
-0.7706898180673414 -0.7706898180673414 -0.7706898180673414 -0.7282874961300447 -0.7282874961300447 -0.7282874961300447 -0.7282874961300447 -0.674630364105842 -0.674630364105842 
-0.674630364105842 -0.674630364105842 -0.6106650101908628 -0.6106650101908628 -0.6106650101908628 -0.6106650101908628 -0.5374837681414928 -0.5374837681414928 -0.5374837681414928 
-0.5374837681414928 -0.4562727414531199 -0.4562727414531199 -0.4562727414531199 -0.4562727414531199 -0.3682586003869799 -0.3682586003869799 -0.3682586003869799 -0.3682586003869799 
-0.2746670702296352 -0.2746670702296352 -0.2746670702296352 -0.2746670702296352 -0.1767060404955236 -0.1767060404955236 -0.1767060404955236 -0.1767060404955236 -0.07558137158153037 
-0.07558137158153037 -0.07558137158153037 -0.07558137158153037 0.02745737629032472 0.02745737629032472 0.02745737629032472 0.02745737629032472 0.1310545956202793 0.1310545956202793 
0.1310545956202793 0.1310545956202793 0.2336970547465548 0.2336970547465548 0.2336970547465548 0.2336970547465548 0.3336841691817514 0.3336841691817514 0.3336841691817514 
0.3336841691817514 0.4291844734164792 0.4291844734164792 0.4291844734164792 0.4291844734164792 0.5182413853579377 0.5182413853579377 0.5182413853579377 0.5182413853579377 
0.5990506812118507 0.5990506812118507 0.5990506812118507 0.5990506812118507 0.6701849123742916 0.6701849123742916 0.6701849123742916 0.6701849123742916 0.7270410414350642 
0.7270410414350642 0.7270410414350642 0.7270410414350642 0.791550512803435 0.791550512803435 0.791550512803435 0.791550512803435 0.8621652950743612 0.8621652950743612 
0.8621652950743612 0.8621652950743612 0.8718039573847248 0.8718039573847248 0.8718039573847248 0.8718039573847248 0.8766010836868358 0.8766010836868358 0.8766010836868358 
0.8766010836868358 0.8699311046230949 0.8699311046230949 0.8699311046230949 0.8699311046230949 0.8502811643099377 0.8502811643099377 0.8502811643099377 0.8502811643099377 
0.8175619869176002 0.8175619869176002 0.8175619869176002 0.8175619869176002 0.7721458611677572 0.7721458611677572 0.7721458611677572 0.7721458611677572 0.7146737998168696 
0.7146737998168696 0.7146737998168696 0.7146737998168696 0.6460601746770789 0.6460601746770789 0.6460601746770789 0.6460601746770789 0.567462028235219 0.567462028235219 
0.567462028235219 0.567462028235219 0.4801308550668589 0.4801308550668589 0.4801308550668589 0.4801308550668589 0.3852501482041897 0.3852501482041897 0.3852501482041897 
0.3852501482041897 0.283952588297291 0.283952588297291 0.283952588297291 0.283952588297291 0.1775633707516213 0.1775633707516213 0.1775633707516213 0.1775633707516213 
0.06785339593276316 0.06785339593276316 0.06785339593276316 0.06785339593276316 -0.04298395853267829 -0.04298395853267829 -0.04298395853267829 -0.04298395853267829 -0.152677560880525 
-0.152677560880525 -0.152677560880525 -0.152677560880525 -0.2592803995025668 -0.2592803995025668 -0.2592803995025668 -0.2592803995025668 -0.3613145802188807 -0.3613145802188807 
-0.3613145802188807 -0.3613145802188807 -0.4575936172408346 -0.4575936172408346 -0.4575936172408346 -0.4575936172408346 -0.5469316116539839 -0.5469316116539839 -0.5469316116539839 
-0.5469316116539839 -0.6279941035718579 -0.6279941035718579 -0.6279941035718579 -0.6279941035718579 -0.699369703805549 -0.699369703805549 -0.699369703805549 -0.699369703805549 
-0.759752932866781 -0.759752932866781 -0.759752932866781 -0.759752932866781 -0.8080861287736957 -0.8080861287736957 -0.8080861287736957 -0.8080861287736957 -0.8435949862760485 
-0.8435949862760485 -0.8435949862760485 -0.8435949862760485 -0.8657549448715285 -0.8657549448715285 -0.8657549448715285 -0.8657549448715285 -0.8742567024246243 -0.8742567024246243 
-0.8742567024246243 -0.8742567024246243 -0.8689958269670752 -0.8689958269670752 -0.8689958269670752 -0.8689958269670752 -0.850080066637005 -0.850080066637005 -0.850080066637005 
-0.850080066637005 -0.8178440784428276 -0.8178440784428276 -0.8178440784428276 -0.8178440784428276 -0.7728600809350832 -0.7728600809350832 -0.7728600809350832 -0.7728600809350832 
-0.71593093168273 -0.71593093168273 -0.71593093168273 -0.71593093168273 -0.6480604067048187 -0.6480604067048187 -0.6480604067048187 -0.6480604067048187 -0.5704079868764245 
-0.5704079868764245 -0.5704079868764245 -0.5704079868764245 -0.484233292082595 -0.484233292082595 -0.484233292082595 -0.484233292082595 -0.390839179036822 -0.390839179036822 
-0.390839179036822 -0.390839179036822 -0.2915274118915254 -0.2915274118915254 -0.2915274118915254 -0.2915274118915254 -0.1875803755375431 -0.1875803755375431 -0.1875803755375431 
-0.1875803755375431 -0.08027760694284961 -0.08027760694284961 -0.08027760694284961 -0.08027760694284961 0.0290557988422536 0.0290557988422536 0.0290557988422536 0.0290557988422536 
0.1389828863398962 0.1389828863398962 0.1389828863398962 0.1389828863398962 0.2478997111294546 0.2478997111294546 0.2478997111294546 0.2478997111294546 0.3540032976382966 
0.3540032976382966 0.3540032976382966 0.3540032976382966 0.4553508553212335 0.4553508553212335 0.4553508553212335 0.4553508553212335 0.5498661438817762 0.5498661438817762 
0.5498661438817762 0.5498661438817762 0.6356325789614901 0.6356325789614901 0.6356325789614901 0.6356325789614901 0.7111309794153431 0.7111309794153431 0.7111309794153431 
0.7111309794153431 0.7714961504612843 0.7714961504612843 0.7714961504612843 0.7714961504612843 0.8399162953113947 0.8399162953113947 0.8399162953113947 0.8399162953113947 
0.8982200008769438 0.8982200008769438 0.8982200008769438 0.8982200008769438 0.9082715821696898 0.9082715821696898 0.9082715821696898 0.9082715821696898 0.9132830673589767 
0.9132830673589767 0.9132830673589767 0.9132830673589767 0.9063381623628449 0.9063381623628449 0.9063381623628449 0.9063381623628449 0.8858604852209293 0.8858604852209293 
0.8858604852209293 0.8858604852209293 0.8517645062219892 0.8517645062219892 0.8517645062219892 0.8517645062219892 0.8044521086109517 0.8044521086109517 0.8044521086109517 
0.8044521086109517 0.7446137808254957 0.7446137808254957 0.7446137808254957 0.7446137808254957 0.6732341752691477 0.6732341752691477 0.6732341752691477 0.6732341752691477 
0.5915387554949785 0.5915387554949785 0.5915387554949785 0.5915387554949785 0.5007963215029224 0.5007963215029224 0.5007963215029224 0.5007963215029224 0.4021269461976946 
0.4021269461976946 0.4021269461976946 0.4021269461976946 0.2965640997348342 0.2965640997348342 0.2965640997348342 0.2965640997348342 0.1854115795207898 0.1854115795207898 
0.1854115795207898 0.1854115795207898 0.07059071672586509 0.07059071672586509 0.07059071672586509 0.07059071672586509 -0.04540362792705569 -0.04540362792705569 -0.04540362792705569 
-0.04540362792705569 -0.1599854549593174 -0.1599854549593174 -0.1599854549593174 -0.1599854549593174 -0.2710303557998314 -0.2710303557998314 -0.2710303557998314 -0.2710303557998314 
-0.3770694807212855 -0.3770694807212855 -0.3770694807212855 -0.3770694807212855 -0.477035041628778 -0.477035041628778 -0.477035041628778 -0.477035041628778 -0.5698433026466444 
-0.5698433026466444 -0.5698433026466444 -0.5698433026466444 -0.6541666233188292 -0.6541666233188292 -0.6541666233188292 -0.6541666233188292 -0.7285106942525799 -0.7285106942525799 
-0.7285106942525799 -0.7285106942525799 -0.7914552084279562 -0.7914552084279562 -0.7914552084279562 -0.7914552084279562 -0.8418491531041161 -0.8418491531041161 -0.8418491531041161 
-0.8418491531041161 -0.8788665838505462 -0.8788665838505462 -0.8788665838505462 -0.8788665838505462 -0.9019598197174 -0.9019598197174 -0.9019598197174 -0.9019598197174 
-0.910815614207924 -0.910815614207924 -0.910815614207924 -0.910815614207924 -0.9053378980901791 -0.9053378980901791 -0.9053378980901791 -0.9053378980901791 -0.8856407376852706 
-0.8856407376852706 -0.8856407376852706 -0.8856407376852706 -0.8520676847238449 -0.8520676847238449 -0.8520676847238449 -0.8520676847238449 -0.8052119775020405 -0.8052119775020405 
-0.8052119775020405 -0.8052119775020405 -0.7459093678428528 -0.7459093678428528 -0.7459093678428528 -0.7459093678428528 -0.6752052883901682 -0.6752052883901682 -0.6752052883901682 
-0.6752052883901682 -0.5943078672307791 -0.5943078672307791 -0.5943078672307791 -0.5943078672307791 -0.5045303761630326 -0.5045303761630326 -0.5045303761630326 -0.5045303761630326 
-0.4072313697438418 -0.4072313697438418 -0.4072313697438418 -0.4072313697438418 -0.3037681804062079 -0.3037681804062079 -0.3037681804062079 -0.3037681804062079 -0.1954775150499232 
-0.1954775150499232 -0.1954775150499232 -0.1954775150499232 -0.08369242952697549 -0.08369242952697549 -0.08369242952697549 -0.08369242952697549 0.03020734756846812 0.03020734756846812 
0.03020734756846812 0.03020734756846812 0.1447262093711034 0.1447262093711034 0.1447262093711034 0.1447262093711034 0.2581948747074278 0.2581948747074278 0.2581948747074278 
0.2581948747074278 0.3687365507307825 0.3687365507307825 0.3687365507307825 0.3687365507307825 0.4743279536197307 0.4743279536197307 0.4743279536197307 0.4743279536197307 
0.5728061258382482 0.5728061258382482 0.5728061258382482 0.5728061258382482 0.6621725164873487 0.6621725164873487 0.6621725164873487 0.6621725164873487 0.7408410972722086 
0.7408410972722086 0.7408410972722086 0.7408410972722086 0.8037537248028872 0.8037537248028872 0.8037537248028872 0.8037537248028872 0.8750329536096447 0.8750329536096447 
0.8750329536096447 0.8750329536096447 0.9201822800490086 0.9201822800490086 0.9201822800490086 0.9201822800490086 0.9304775663617186 0.9304775663617186 0.9304775663617186 
0.9304775663617186 0.9356103244108815 0.9356103244108815 0.9356103244108815 0.9356103244108815 0.9285169230055776 0.9285169230055776 0.9285169230055776 0.9285169230055776 
0.907551165052414 0.907551165052414 0.907551165052414 0.907551165052414 0.8726333944828808 0.8726333944828808 0.8726333944828808 0.8726333944828808 0.8241845869904748 
0.8241845869904748 0.8241845869904748 0.8241845869904748 0.7629319807006347 0.7629319807006347 0.7629319807006347 0.7629319807006347 0.6899090036253344 0.6899090036253344 
0.6899090036253344 0.6899090036253344 0.6063856279075517 0.6063856279075517 0.6063856279075517 0.6063856279075517 0.5136356135092139 0.5136356135092139 0.5136356135092139 
0.5136356135092139 0.4127206994352581 0.4127206994352581 0.4127206994352581 0.4127206994352581 0.3045812874673313 0.3045812874673313 0.3045812874673313 0.3045812874673313 
0.1904782781308266 0.1904782781308266 0.1904782781308266 0.1904782781308266 0.07242139201330876 0.07242139201330876 0.07242139201330876 0.07242139201330876 -0.04687568476251278 
-0.04687568476251278 -0.04687568476251278 -0.04687568476251278 -0.1645766870367951 -0.1645766870367951 -0.1645766870367951 -0.1645766870367951 -0.2784011051335654 -0.2784011051335654 
-0.2784011051335654 -0.2784011051335654 -0.3868744634224904 -0.3868744634224904 -0.3868744634224904 -0.3868744634224904 -0.4890271562435654 -0.4890271562435654 -0.4890271562435654 
-0.4890271562435654 -0.5838781644928824 -0.5838781644928824 -0.5838781644928824 -0.5838781644928824 -0.6701342354734146 -0.6701342354734146 -0.6701342354734146 -0.6701342354734146 
-0.7462598166819994 -0.7462598166819994 -0.7462598166819994 -0.7462598166819994 -0.8107581701282244 -0.8107581701282244 -0.8107581701282244 -0.8107581701282244 -0.8624099364800286 
-0.8624099364800286 -0.8624099364800286 -0.8624099364800286 -0.9003524774210777 -0.9003524774210777 -0.9003524774210777 -0.9003524774210777 -0.9240207005042916 -0.9240207005042916 
-0.9240207005042916 -0.9240207005042916 -0.9330706713128541 -0.9330706713128541 -0.9330706713128541 -0.9330706713128541 -0.9274745856348878 -0.9274745856348878 -0.9274745856348878 
-0.9274745856348878 -0.907310108537225 -0.907310108537225 -0.907310108537225 -0.907310108537225 -0.8729280767570158 -0.8729280767570158 -0.8729280767570158 -0.8729280767570158 
-0.8249348343679777 -0.8249348343679777 -0.8249348343679777 -0.8249348343679777 -0.7641880698778125 -0.7641880698778125 -0.7641880698778125 -0.7641880698778125 -0.6917585577458787 
-0.6917585577458787 -0.6917585577458787 -0.6917585577458787 -0.6088840552922157 -0.6088840552922157 -0.6088840552922157 -0.6088840552922157 -0.5169107537052197 -0.5169107537052197 
-0.5169107537052197 -0.5169107537052197 -0.4172316390740257 -0.4172316390740257 -0.4172316390740257 -0.4172316390740257 -0.3112384045308558 -0.3112384045308558 -0.3112384045308558 
-0.3112384045308558 -0.2003012571402333 -0.2003012571402333 -0.2003012571402333 -0.2003012571402333 -0.08578603079539121 -0.08578603079539121 -0.08578603079539121 -0.08578603079539121 
0.03089437645736648 0.03089437645736648 0.03089437645736648 0.03089437645736648 0.1482090211516717 0.1482090211516717 0.1482090211516717 0.1482090211516717 0.2644494004321273 
0.2644494004321273 0.2644494004321273 0.2644494004321273 0.3776943773088813 0.3776943773088813 0.3776943773088813 0.3776943773088813 0.4858720733476496 0.4858720733476496 
0.4858720733476496 0.4858720733476496 0.5867668879089507 0.5867668879089507 0.5867668879089507 0.5867668879089507 0.6783300209859761 0.6783300209859761 0.6783300209859761 
0.6783300209859761 0.7589342491376121 0.7589342491376121 0.7589342491376121 0.7589342491376121 0.8234022751631148 0.8234022751631148 0.8234022751631148 0.8234022751631148 
0.8964314954885252 0.8964314954885252 0.8964314954885252 0.8964314954885252 0.9278594849937629 0.9278594849937629 0.9278594849937629 0.9278594849937629 0.9382322961195616 
0.9382322961195616 0.9382322961195616 0.9382322961195616 0.943404415900285 0.943404415900285 0.943404415900285 0.943404415900285 0.9362777417937618 0.9362777417937618 
0.9362777417937618 0.9362777417937618 0.9151623705985985 0.9151623705985985 0.9151623705985985 0.9151623705985985 0.8799759070811449 0.8799759070811449 0.8799759070811449 
0.8799759070811449 0.8311464877357109 0.8311464877357109 0.8311464877357109 0.8311464877357109 0.7694110462587412 0.7694110462587412 0.7694110462587412 0.7694110462587412 
0.6958165508413727 0.6958165508413727 0.6958165508413727 0.6958165508413727 0.6116526312913926 0.6116526312913926 0.6116526312913926 0.6116526312913926 0.5182120809686253 
0.5182120809686253 0.5182120809686253 0.5182120809686253 0.4165566450258472 0.4165566450258472 0.4165566450258472 0.4165566450258472 0.3075958273529291 0.3075958273529291 
0.3075958273529291 0.3075958273529291 0.192546245066214 0.192546245066214 0.192546245066214 0.192546245066214 0.07340330387070498 0.07340330387070498 0.07340330387070498 
0.07340330387070498 -0.04707134564486282 -0.04707134564486282 -0.04707134564486282 -0.04707134564486282 -0.1659446056631627 -0.1659446056631627 -0.1659446056631627 -0.1659446056631627 
-0.2808426894271435 -0.2808426894271435 -0.2808426894271435 -0.2808426894271435 -0.3902493661354894 -0.3902493661354894 -0.3902493661354894 -0.3902493661354894 -0.4932113009472019 
-0.4932113009472019 -0.4932113009472019 -0.4932113009472019 -0.5887892932559616 -0.5887892932559616 -0.5887892932559616 -0.5887892932559616 -0.6757187706904129 -0.6757187706904129 
-0.6757187706904129 -0.6757187706904129 -0.7524633030604517 -0.7524633030604517 -0.7524633030604517 -0.7524633030604517 -0.8175045765040406 -0.8175045765040406 -0.8175045765040406 
-0.8175045765040406 -0.8695980970337464 -0.8695980970337464 -0.8695980970337464 -0.8695980970337464 -0.9078646356452704 -0.9078646356452704 -0.9078646356452704 -0.9078646356452704 
-0.9317203561031558 -0.9317203561031558 -0.9317203561031558 -0.9317203561031558 -0.9408398451266319 -0.9408398451266319 -0.9408398451266319 -0.9408398451266319 -0.9352156392273281 