Title = Result/Post/Linear_Advection_2D/FVM/MLP_u1_Least_Square/Sine_Wave_2D/Quad50/
FileType = Solution
Variables = q
Zone T = Result/Post/Linear_Advection_2D/FVM/MLP_u1_Least_Square/Sine_Wave_2D/Quad50/
ZoneType = FETriangle
Nodes = 10000
Elements = 5000
DataPacking = Block
StrandID = 10
SolutionTime = 0.9
-0.2770246403728703 -0.2770246403728703 -0.2770246403728703 -0.2770246403728703 -0.3003906592534036 -0.3003906592534036 -0.3003906592534036 -0.3003906592534036 -0.3304504075979346 -0.3304504075979346 
-0.3304504075979346 -0.3304504075979346 -0.357568130588694 -0.357568130588694 -0.357568130588694 -0.357568130588694 -0.3793243914156678 -0.3793243914156678 -0.3793243914156678 
-0.3793243914156678 -0.3950908953871498 -0.3950908953871498 -0.3950908953871498 -0.3950908953871498 -0.4046750437760976 -0.4046750437760976 -0.4046750437760976 -0.4046750437760976 
-0.4079795508483171 -0.4079795508483171 -0.4079795508483171 -0.4079795508483171 -0.4050124887531112 -0.4050124887531112 -0.4050124887531112 -0.4050124887531112 -0.3957587926144269 
-0.3957587926144269 -0.3957587926144269 -0.3957587926144269 -0.3803082730531485 -0.3803082730531485 -0.3803082730531485 -0.3803082730531485 -0.3588649557245203 -0.3588649557245203 
-0.3588649557245203 -0.3588649557245203 -0.331747472919499 -0.331747472919499 -0.331747472919499 -0.331747472919499 -0.2993791019088242 -0.2993791019088242 -0.2993791019088242 
-0.2993791019088242 -0.2622764275353468 -0.2622764275353468 -0.2622764275353468 -0.2622764275353468 -0.2210326934564475 -0.2210326934564475 -0.2210326934564475 -0.2210326934564475 
-0.176303427789762 -0.176303427789762 -0.176303427789762 -0.176303427789762 -0.128794983161343 -0.128794983161343 -0.128794983161343 -0.128794983161343 -0.07925531720628903 
-0.07925531720628903 -0.07925531720628903 -0.07925531720628903 -0.02846484005673257 -0.02846484005673257 -0.02846484005673257 -0.02846484005673257 0.02277452351481252 0.02277452351481252 
0.02277452351481252 0.02277452351481252 0.07365250895324582 0.07365250895324582 0.07365250895324582 0.07365250895324582 0.123364974053111 0.123364974053111 0.123364974053111 
0.123364974053111 0.1711279699267886 0.1711279699267886 0.1711279699267886 0.1711279699267886 0.2161901858563103 0.2161901858563103 0.2161901858563103 0.2161901858563103 
0.2578436161501244 0.2578436161501244 0.2578436161501244 0.2578436161501244 0.2954332145732335 0.2954332145732335 0.2954332145732335 0.2954332145732335 0.3283665345516169 
0.3283665345516169 0.3283665345516169 0.3283665345516169 0.3561236513628763 0.3561236513628763 0.3561236513628763 0.3561236513628763 0.3782665012922414 0.3782665012922414 
0.3782665012922414 0.3782665012922414 0.394446259414405 0.394446259414405 0.394446259414405 0.394446259414405 0.4044035344657397 0.4044035344657397 0.4044035344657397 
0.4044035344657397 0.4079622704535232 0.4079622704535232 0.4079622704535232 0.4079622704535232 0.405108698359391 0.405108698359391 0.405108698359391 0.405108698359391 
0.3958541459274834 0.3958541459274834 0.3958541459274834 0.3958541459274834 0.3803353829223058 0.3803353829223058 0.3803353829223058 0.3803353829223058 0.3588176706903714 
0.3588176706903714 0.3588176706903714 0.3588176706903714 0.3317005257717481 0.3317005257717481 0.3317005257717481 0.3317005257717481 0.2995175672210298 0.2995175672210298 
0.2995175672210298 0.2995175672210298 0.2629173445746999 0.2629173445746999 0.2629173445746999 0.2629173445746999 0.2226056282966599 0.2226056282966599 0.2226056282966599 
0.2226056282966599 0.1792615942839362 0.1792615942839362 0.1792615942839362 0.1792615942839362 0.1334587068955134 0.1334587068955134 0.1334587068955134 0.1334587068955134 
0.08562907056380586 0.08562907056380586 0.08562907056380586 0.08562907056380586 0.03612342393434282 0.03612342393434282 0.03612342393434282 0.03612342393434282 -0.01475628542278874 
-0.01475628542278874 -0.01475628542278874 -0.01475628542278874 -0.06617007249629214 -0.06617007249629214 -0.06617007249629214 -0.06617007249629214 -0.1188511049273405 -0.1188511049273405 
-0.1188511049273405 -0.1188511049273405 -0.1641226599647125 -0.1641226599647125 -0.1641226599647125 -0.1641226599647125 -0.237723917498492 -0.237723917498492 -0.237723917498492 
-0.237723917498492 -0.3223302831406875 -0.3223302831406875 -0.3223302831406875 -0.3223302831406875 -0.3483244173853422 -0.3483244173853422 -0.3483244173853422 -0.3483244173853422 
-0.3831536545411519 -0.3831536545411519 -0.3831536545411519 -0.3831536545411519 -0.414815660598199 -0.414815660598199 -0.414815660598199 -0.414815660598199 -0.4402402549918413 
-0.4402402549918413 -0.4402402549918413 -0.4402402549918413 -0.4586405033060968 -0.4586405033060968 -0.4586405033060968 -0.4586405033060968 -0.4698084613502508 -0.4698084613502508 
-0.4698084613502508 -0.4698084613502508 -0.4736749007836735 -0.4736749007836735 -0.4736749007836735 -0.4736749007836735 -0.4702246916313064 -0.4702246916313064 -0.4702246916313064 
-0.4702246916313064 -0.4594815321581566 -0.4594815321581566 -0.4594815321581566 -0.4594815321581566 -0.4415488756439181 -0.4415488756439181 -0.4415488756439181 -0.4415488756439181 
-0.4166602602606149 -0.4166602602606149 -0.4166602602606149 -0.4166602602606149 -0.3851829964594334 -0.3851829964594334 -0.3851829964594334 -0.3851829964594334 -0.3476086984713574 
-0.3476086984713574 -0.3476086984713574 -0.3476086984713574 -0.3045373413366537 -0.3045373413366537 -0.3045373413366537 -0.3045373413366537 -0.2566579232744963 -0.2566579232744963 
-0.2566579232744963 -0.2566579232744963 -0.2047315904466113 -0.2047315904466113 -0.2047315904466113 -0.2047315904466113 -0.1495783437816345 -0.1495783437816345 -0.1495783437816345 
-0.1495783437816345 -0.09206645704608554 -0.09206645704608554 -0.09206645704608554 -0.09206645704608554 -0.03310186183149535 -0.03310186183149535 -0.03310186183149535 -0.03310186183149535 
0.02638458176823548 0.02638458176823548 0.02638458176823548 0.02638458176823548 0.08545242214758822 0.08545242214758822 0.08545242214758822 0.08545242214758822 0.1431683483551341 
0.1431683483551341 0.1431683483551341 0.1431683483551341 0.1986223848276081 0.1986223848276081 0.1986223848276081 0.1986223848276081 0.2509422105650126 0.2509422105650126 
0.2509422105650126 0.2509422105650126 0.2993055362283685 0.2993055362283685 0.2993055362283685 0.2993055362283685 0.3429514682833981 0.3429514682833981 0.3429514682833981 
0.3429514682833981 0.3811919330653575 0.3811919330653575 0.3811919330653575 0.3811919330653575 0.4134232574821873 0.4134232574821873 0.4134232574821873 0.4134232574821873 
0.4391366502574322 0.4391366502574322 0.4391366502574322 0.4391366502574322 0.4579257740055338 0.4579257740055338 0.4579257740055338 0.4579257740055338 0.4694899636033579 
0.4694899636033579 0.4694899636033579 0.4694899636033579 0.4736435215671395 0.4736435215671395 0.4736435215671395 0.4736435215671395 0.4703279591581105 0.4703279591581105 
0.4703279591581105 0.4703279591581105 0.4595874329796444 0.4595874329796444 0.4595874329796444 0.4595874329796444 0.4415781651597529 0.4415781651597529 0.4415781651597529 
0.4415781651597529 0.4166036580367228 0.4166036580367228 0.4166036580367228 0.4166036580367228 0.3851242403631223 0.3851242403631223 0.3851242403631223 0.3851242403631223 
0.3477587605669375 0.3477587605669375 0.3477587605669375 0.3477587605669375 0.3052608343476211 0.3052608343476211 0.3052608343476211 0.3052608343476211 0.2584531066901729 
0.2584531066901729 0.2584531066901729 0.2584531066901729 0.2081296651813893 0.2081296651813893 0.2081296651813893 0.2081296651813893 0.1549621408666859 0.1549621408666859 
0.1549621408666859 0.1549621408666859 0.09945426661174013 0.09945426661174013 0.09945426661174013 0.09945426661174013 0.04201288116427029 0.04201288116427029 0.04201288116427029 
0.04201288116427029 -0.01703541045196658 -0.01703541045196658 -0.01703541045196658 -0.01703541045196658 -0.07665670692501153 -0.07665670692501153 -0.07665670692501153 -0.07665670692501153 
-0.1380324049862732 -0.1380324049862732 -0.1380324049862732 -0.1380324049862732 -0.1898013172011437 -0.1898013172011437 -0.1898013172011437 -0.1898013172011437 -0.276920626772897 
-0.276920626772897 -0.276920626772897 -0.276920626772897 -0.3849860945410585 -0.3849860945410585 -0.3849860945410585 -0.3849860945410585 -0.4162172665755881 -0.4162172665755881 
-0.4162172665755881 -0.4162172665755881 -0.4575122603828199 -0.4575122603828199 -0.4575122603828199 -0.4575122603828199 -0.4951521986905665 -0.4951521986905665 -0.4951521986905665 
-0.4951521986905665 -0.5254828699788601 -0.5254828699788601 -0.5254828699788601 -0.5254828699788601 -0.5474926459904623 -0.5474926459904623 -0.5474926459904623 -0.5474926459904623 
-0.5608817325403581 -0.5608817325403581 -0.5608817325403581 -0.5608817325403581 -0.565546846890198 -0.565546846890198 -0.565546846890198 -0.565546846890198 -0.5614573258263106 
-0.5614573258263106 -0.5614573258263106 -0.5614573258263106 -0.5486445189459015 -0.5486445189459015 -0.5486445189459015 -0.5486445189459015 -0.5272433392476428 -0.5272433392476428 
-0.5272433392476428 -0.5272433392476428 -0.4975339356205594 -0.4975339356205594 -0.4975339356205594 -0.4975339356205594 -0.4599549074364604 -0.4599549074364604 -0.4599549074364604 
-0.4599549074364604 -0.4150946692581696 -0.4150946692581696 -0.4150946692581696 -0.4150946692581696 -0.3636705528121221 -0.3636705528121221 -0.3636705528121221 -0.3636705528121221 
-0.3065057627554143 -0.3065057627554143 -0.3065057627554143 -0.3065057627554143 -0.2445090695831375 -0.2445090695831375 -0.2445090695831375 -0.2445090695831375 -0.1786592207212865 
-0.1786592207212865 -0.1786592207212865 -0.1786592207212865 -0.1099925007721407 -0.1099925007721407 -0.1099925007721407 -0.1099925007721407 -0.03959017470733786 -0.03959017470733786 
-0.03959017470733786 -0.03959017470733786 0.03143666224614809 0.03143666224614809 0.03143666224614809 0.03143666224614809 0.1019653638446719 0.1019653638446719 0.1019653638446719 
0.1019653638446719 0.1708816365411256 0.1708816365411256 0.1708816365411256 0.1708816365411256 0.2370988028676784 0.2370988028676784 0.2370988028676784 0.2370988028676784 
0.2995749034484848 0.2995749034484848 0.2995749034484848 0.2995749034484848 0.3573276094588334 0.3573276094588334 0.3573276094588334 0.3573276094588334 0.4094480144515867 
0.4094480144515867 0.4094480144515867 0.4094480144515867 0.455114392444549 0.455114392444549 0.455114392444549 0.455114392444549 0.493605832002717 0.493605832002717 
0.493605832002717 0.493605832002717 0.5243143916000275 0.5243143916000275 0.5243143916000275 0.5243143916000275 0.5467544435138579 0.5467544435138579 0.5467544435138579 
0.5467544435138579 0.5605693674580923 0.5605693674580923 0.5605693674580923 0.5605693674580923 0.5655402236821898 0.5655402236821898 0.5655402236821898 0.5655402236821898 
0.5615893745080787 0.5615893745080787 0.5615893745080787 0.5615893745080787 0.5487695296470043 0.5487695296470043 0.5487695296470043 0.5487695296470043 0.5272743626847821 
0.5272743626847821 0.5272743626847821 0.5272743626847821 0.4974636855373729 0.4974636855373729 0.4974636855373729 0.4974636855373729 0.4598833824602718 0.4598833824602718 
0.4598833824602718 0.4598833824602718 0.41527072427071 0.41527072427071 0.41527072427071 0.41527072427071 0.3645248887738167 0.3645248887738167 0.3645248887738167 
0.3645248887738167 0.3086296706172648 0.3086296706172648 0.3086296706172648 0.3086296706172648 0.2485371705803234 0.2485371705803234 0.2485371705803234 0.2485371705803234 
0.1850546611376319 0.1850546611376319 0.1850546611376319 0.1850546611376319 0.1187877910977443 0.1187877910977443 0.1187877910977443 0.1187877910977443 0.05022218824012824 
0.05022218824012824 0.05022218824012824 0.05022218824012824 -0.02025605006400524 -0.02025605006400524 -0.02025605006400524 -0.02025605006400524 -0.09143004979349822 -0.09143004979349822 
-0.09143004979349822 -0.09143004979349822 -0.1646680944757419 -0.1646680944757419 -0.1646680944757419 -0.1646680944757419 -0.2266888652534852 -0.2266888652534852 -0.2266888652534852 
-0.2266888652534852 -0.3303545010770264 -0.3303545010770264 -0.3303545010770264 -0.3303545010770264 -0.4467530652412783 -0.4467530652412783 -0.4467530652412783 -0.4467530652412783 
-0.4832458263276104 -0.4832458263276104 -0.4832458263276104 -0.4832458263276104 -0.531246653105946 -0.531246653105946 -0.531246653105946 -0.531246653105946 -0.5748498638272483 
-0.5748498638272483 -0.5748498638272483 -0.5748498638272483 -0.6099635761985969 -0.6099635761985969 -0.6099635761985969 -0.6099635761985969 -0.6354632318956258 -0.6354632318956258 
-0.6354632318956258 -0.6354632318956258 -0.6510001627820861 -0.6510001627820861 -0.6510001627820861 -0.6510001627820861 -0.6564368571764527 -0.6564368571764527 -0.6564368571764527 
-0.6564368571764527 -0.6517170861546631 -0.6517170861546631 -0.6517170861546631 -0.6517170861546631 -0.636867723113288 -0.636867723113288 -0.636867723113288 -0.636867723113288 
-0.6120436487879697 -0.6120436487879697 -0.6120436487879697 -0.6120436487879697 -0.5775692390569548 -0.5775692390569548 -0.5775692390569548 -0.5775692390569548 -0.5339544020371811 
-0.5339544020371811 -0.5339544020371811 -0.5339544020371811 -0.4818840027523669 -0.4818840027523669 -0.4818840027523669 -0.4818840027523669 -0.4221929377681753 -0.4221929377681753 
-0.4221929377681753 -0.4221929377681753 -0.3558383019580748 -0.3558383019580748 -0.3558383019580748 -0.3558383019580748 -0.283875477820285 -0.283875477820285 -0.283875477820285 
-0.283875477820285 -0.2074403135718284 -0.2074403135718284 -0.2074403135718284 -0.2074403135718284 -0.1277350318584046 -0.1277350318584046 -0.1277350318584046 -0.1277350318584046 
-0.04601401592984239 -0.04601401592984239 -0.04601401592984239 -0.04601401592984239 0.03643354746217507 0.03643354746217507 0.03643354746217507 0.03643354746217507 0.1183047513224438 
0.1183047513224438 0.1183047513224438 0.1183047513224438 0.1983060253312379 0.1983060253312379 0.1983060253312379 0.1983060253312379 0.275175547873724 0.275175547873724 
0.275175547873724 0.275175547873724 0.3477032516953552 0.3477032516953552 0.3477032516953552 0.3477032516953552 0.4147483495692742 0.4147483495692742 0.4147483495692742 
0.4147483495692742 0.4752555174093215 0.4752555174093215 0.4752555174093215 0.4752555174093215 0.5282708347778055 0.5282708347778055 0.5282708347778055 0.5282708347778055 
0.5729573718981785 0.5729573718981785 0.5729573718981785 0.5729573718981785 0.6086091973118979 0.6086091973118979 0.6086091973118979 0.6086091973118979 0.6346626966574438 
0.6346626966574438 0.6346626966574438 0.6346626966574438 0.6507054771689122 0.6507054771689122 0.6507054771689122 0.6507054771689122 0.6564840139331073 0.6564840139331073 
0.6564840139331073 0.6564840139331073 0.6519042755991974 0.6519042755991974 0.6519042755991974 0.6519042755991974 0.6370282750782793 0.6370282750782793 0.6370282750782793 
0.6370282750782793 0.6120837852827892 0.6120837852827892 0.6120837852827892 0.6120837852827892 0.5774877100535454 0.5774877100535454 0.5774877100535454 0.5774877100535454 
0.5338715850733886 0.5338715850733886 0.5338715850733886 0.5338715850733886 0.482088946301744 0.482088946301744 0.482088946301744 0.482088946301744 0.4231823000948612 
0.4231823000948612 0.4231823000948612 0.4231823000948612 0.3582940192255621 0.3582940192255621 0.3582940192255621 0.3582940192255621 0.2885318077799663 0.2885318077799663 
0.2885318077799663 0.2885318077799663 0.214836988927659 0.214836988927659 0.214836988927659 0.214836988927659 0.1379168256205619 0.1379168256205619 0.1379168256205619 
0.1379168256205619 0.05833650855965591 0.05833650855965591 0.05833650855965591 0.05833650855965591 -0.02345654800649644 -0.02345654800649644 -0.02345654800649644 -0.02345654800649644 
-0.1060650676288375 -0.1060650676288375 -0.1060650676288375 -0.1060650676288375 -0.1910331681478967 -0.1910331681478967 -0.1910331681478967 -0.1910331681478967 -0.263209266361229 
-0.263209266361229 -0.263209266361229 -0.263209266361229 -0.3832029232295051 -0.3832029232295051 -0.3832029232295051 -0.3832029232295051 -0.5027492068732266 -0.5027492068732266 
-0.5027492068732266 -0.5027492068732266 -0.5439021322436359 -0.5439021322436359 -0.5439021322436359 -0.5439021322436359 -0.5980370090996462 -0.5980370090996462 -0.5980370090996462 
-0.5980370090996462 -0.6471509172714651 -0.6471509172714651 -0.6471509172714651 -0.6471509172714651 -0.6866468548850111 -0.6866468548850111 -0.6866468548850111 -0.6866468548850111 
-0.7153029829652189 -0.7153029829652189 -0.7153029829652189 -0.7153029829652189 -0.7327574933818388 -0.7327574933818388 -0.7327574933818388 -0.7327574933818388 -0.7388654649357759 
-0.7388654649357759 -0.7388654649357759 -0.7388654649357759 -0.7335590094402547 -0.7335590094402547 -0.7335590094402547 -0.7335590094402547 -0.7168601614858707 -0.7168601614858707 
-0.7168601614858707 -0.7168601614858707 -0.6889359192189171 -0.6889359192189171 -0.6889359192189171 -0.6889359192189171 -0.6501463312179935 -0.6501463312179935 -0.6501463312179935 
-0.6501463312179935 -0.6010628130375127 -0.6010628130375127 -0.6010628130375127 -0.6010628130375127 -0.5424565024696281 -0.5424565024696281 -0.5424565024696281 -0.5424565024696281 
-0.4752691552377951 -0.4752691552377951 -0.4752691552377951 -0.4752691552377951 -0.4005801488772543 -0.4005801488772543 -0.4005801488772543 -0.4005801488772543 -0.3195787269247813 
-0.3195787269247813 -0.3195787269247813 -0.3195787269247813 -0.2335437031192033 -0.2335437031192033 -0.2335437031192033 -0.2335437031192033 -0.1438278775308812 -0.1438278775308812 
-0.1438278775308812 -0.1438278775308812 -0.05184247347325027 -0.05184247347325027 -0.05184247347325027 -0.05184247347325027 0.04096202030394248 0.04096202030394248 0.04096202030394248 
0.04096202030394248 0.1331193345164716 0.1331193345164716 0.1331193345164716 0.1331193345164716 0.2231733010413643 0.2231733010413643 0.2231733010413643 0.2231733010413643 
0.309703174785932 0.309703174785932 0.309703174785932 0.309703174785932 0.3913463617683799 0.3913463617683799 0.3913463617683799 0.3913463617683799 0.466818368295696 
0.466818368295696 0.466818368295696 0.466818368295696 0.5349311337073731 0.5349311337073731 0.5349311337073731 0.5349311337073731 0.5946108902098231 0.5946108902098231 
0.5946108902098231 0.5946108902098231 0.6449155191728219 0.6449155191728219 0.6449155191728219 0.6449155191728219 0.6850503064325869 0.6850503064325869 0.6850503064325869 
0.6850503064325869 0.7143810927423335 0.7143810927423335 0.7143810927423335 0.7143810927423335 0.7324446016220457 0.7324446016220457 0.7324446016220457 0.7324446016220457 
0.7389552257708942 0.7389552257708942 0.7389552257708942 0.7389552257708942 0.7338056626767255 0.7338056626767255 0.7338056626767255 0.7338056626767255 0.7170662466258579 
0.7170662466258579 0.7170662466258579 0.7170662466258579 0.6889945862444742 0.6889945862444742 0.6889945862444742 0.6889945862444742 0.6500599880085673 0.6500599880085673 
0.6500599880085673 0.6500599880085673 0.6009715836459659 0.6009715836459659 0.6009715836459659 0.6009715836459659 0.5426879751778331 0.5426879751778331 0.5426879751778331 
0.5426879751778331 0.4763812323445099 0.4763812323445099 0.4763812323445099 0.4763812323445099 0.4033372071094231 0.4033372071094231 0.4033372071094231 0.4033372071094231 
0.3248047088884928 0.3248047088884928 0.3248047088884928 0.3248047088884928 0.2418469104312315 0.2418469104312315 0.2418469104312315 0.2418469104312315 0.1552638472283362 
0.1552638472283362 0.1552638472283362 0.1552638472283362 0.06569345338966617 0.06569345338966617 0.06569345338966617 0.06569345338966617 -0.02636011955627309 -0.02636011955627309 
-0.02636011955627309 -0.02636011955627309 -0.1193380993678319 -0.1193380993678319 -0.1193380993678319 -0.1193380993678319 -0.214940749005967 -0.214940749005967 -0.214940749005967 
-0.214940749005967 -0.2962806910310544 -0.2962806910310544 -0.2962806910310544 -0.2962806910310544 -0.4312068033784449 -0.4312068033784449 -0.4312068033784449 -0.4312068033784449 
-0.5511579097175725 -0.5511579097175725 -0.5511579097175725 -0.5511579097175725 -0.5962874416481815 -0.5962874416481815 -0.5962874416481815 -0.5962874416481815 -0.6556876521504007 
-0.6556876521504007 -0.6556876521504007 -0.6556876521504007 -0.7095849372969569 -0.7095849372969569 -0.7095849372969569 -0.7095849372969569 -0.7529090059473251 -0.7529090059473251 
-0.7529090059473251 -0.7529090059473251 -0.7843191960692055 -0.7843191960692055 -0.7843191960692055 -0.7843191960692055 -0.803434398456337 -0.803434398456337 -0.803434398456337 
-0.803434398456337 -0.8101113286253032 -0.8101113286253032 -0.8101113286253032 -0.8101113286253032 -0.8042838380548063 -0.8042838380548063 -0.8042838380548063 -0.8042838380548063 
-0.7859771234628538 -0.7859771234628538 -0.7859771234628538 -0.7859771234628538 -0.7553707428138774 -0.7553707428138774 -0.7553707428138774 -0.7553707428138774 -0.7128540834521655 
-0.7128540834521655 -0.7128540834521655 -0.7128540834521655 -0.6590491234879237 -0.6590491234879237 -0.6590491234879237 -0.6590491234879237 -0.5947992932629418 -0.5947992932629418 
-0.5947992932629418 -0.5947992932629418 -0.5211373136003726 -0.5211373136003726 -0.5211373136003726 -0.5211373136003726 -0.4392479603219447 -0.4392479603219447 -0.4392479603219447 
-0.4392479603219447 -0.3504365200883744 -0.3504365200883744 -0.3504365200883744 -0.3504365200883744 -0.2561058881674175 -0.2561058881674175 -0.2561058881674175 -0.2561058881674175 
-0.1577394072971228 -0.1577394072971228 -0.1577394072971228 -0.1577394072971228 -0.05688404801379199 -0.05688404801379199 -0.05688404801379199 -0.05688404801379199 0.04487025447729448 
0.04487025447729448 0.04487025447729448 0.04487025447729448 0.1459160763098903 0.1459160763098903 0.1459160763098903 0.1459160763098903 0.2446567697315739 0.2446567697315739 
0.2446567697315739 0.2446567697315739 0.3395342849123376 0.3395342849123376 0.3395342849123376 0.3395342849123376 0.4290542574443901 0.4290542574443901 0.4290542574443901 
0.4290542574443901 0.5118080509315022 0.5118080509315022 0.5118080509315022 0.5118080509315022 0.5864929302119923 0.5864929302119923 0.5864929302119923 0.5864929302119923 
0.6519315639385934 0.6519315639385934 0.6519315639385934 0.6519315639385934 0.7070909782743838 0.7070909782743838 0.7070909782743838 0.7070909782743838 0.7510998039401771 
0.7510998039401771 0.7510998039401771 0.7510998039401771 0.783262838728068 0.783262838728068 0.783262838728068 0.783262838728068 0.803072500927168 0.803072500927168 
0.803072500927168 0.803072500927168 0.8102155527733446 0.8102155527733446 0.8102155527733446 0.8102155527733446 0.8045740888155708 0.8045740888155708 0.8045740888155708 
0.8045740888155708 0.7862256419727043 0.7862256419727043 0.7862256419727043 0.7862256419727043 0.7554533307263923 0.7554533307263923 0.7554533307263923 0.7554533307263923 
0.712771373441603 0.712771373441603 0.712771373441603 0.712771373441603 0.658955753764444 0.658955753764444 0.658955753764444 0.658955753764444 0.5950556616659839 
0.5950556616659839 0.5950556616659839 0.5950556616659839 0.5223547995638835 0.5223547995638835 0.5223547995638835 0.5223547995638835 0.4422629365534947 0.4422629365534947 
0.4422629365534947 0.4422629365534947 0.3561510398079135 0.3561510398079135 0.3561510398079135 0.3561510398079135 0.2651880531208099 0.2651880531208099 0.2651880531208099 
0.2651880531208099 0.1702547628397134 0.1702547628397134 0.1702547628397134 0.1702547628397134 0.07205236045228908 0.07205236045228908 0.07205236045228908 0.07205236045228908 
-0.02886589248915322 -0.02886589248915322 -0.02886589248915322 -0.02886589248915322 -0.1308016262253468 -0.1308016262253468 -0.1308016262253468 -0.1308016262253468 -0.2355968666585331 
-0.2355968666585331 -0.2355968666585331 -0.2355968666585331 -0.3248206072551997 -0.3248206072551997 -0.3248206072551997 -0.3248206072551997 -0.4727228558673553 -0.4727228558673553 
-0.4727228558673553 -0.4727228558673553 -0.5909708972172122 -0.5909708972172122 -0.5909708972172122 -0.5909708972172122 -0.6393629586198089 -0.6393629586198089 -0.6393629586198089 
-0.6393629586198089 -0.7030692000135275 -0.7030692000135275 -0.7030692000135275 -0.7030692000135275 -0.7608876523842818 -0.7608876523842818 -0.7608876523842818 -0.7608876523842818 
-0.8073680340954914 -0.8073680340954914 -0.8073680340954914 -0.8073680340954914 -0.8410606888100142 -0.8410606888100142 -0.8410606888100142 -0.8410606888100142 -0.8615549765642023 
-0.8615549765642023 -0.8615549765642023 -0.8615549765642023 -0.8687032133560428 -0.8687032133560428 -0.8687032133560428 -0.8687032133560428 -0.8624429525917586 -0.8624429525917586 
-0.8624429525917586 -0.8624429525917586 -0.8428072988792106 -0.8428072988792106 -0.8428072988792106 -0.8428072988792106 -0.8099900087751802 -0.8099900087751802 -0.8099900087751802 
-0.8099900087751802 -0.7644064502183838 -0.7644064502183838 -0.7644064502183838 -0.7644064502183838 -0.7067203842805994 -0.7067203842805994 -0.7067203842805994 -0.7067203842805994 
-0.6378334677618706 -0.6378334677618706 -0.6378334677618706 -0.6378334677618706 -0.5588517163058854 -0.5588517163058854 -0.5588517163058854 -0.5588517163058854 -0.4710454519485743 
-0.4710454519485743 -0.4710454519485743 -0.4710454519485743 -0.3758148713688386 -0.3758148713688386 -0.3758148713688386 -0.3758148713688386 -0.2746648933389897 -0.2746648933389897 
-0.2746648933389897 -0.2746648933389897 -0.1691864155293183 -0.1691864155293183 -0.1691864155293183 -0.1691864155293183 -0.06103829167472209 -0.06103829167472209 -0.06103829167472209 
-0.06103829167472209 0.04807467777881981 0.04807467777881981 0.04807467777881981 0.04807467777881981 0.1564288864721249 0.1564288864721249 0.1564288864721249 0.1564288864721249 
0.2623121385243143 0.2623121385243143 0.2623121385243143 0.2623121385243143 0.3640534992847333 0.3640534992847333 0.3640534992847333 0.3640534992847333 0.4600502854581578 
0.4600502854581578 0.4600502854581578 0.4600502854581578 0.5487917982660637 0.5487917982660637 0.5487917982660637 0.5487917982660637 0.6288809779508041 0.6288809779508041 
0.6288809779508041 0.6288809779508041 0.699055291169506 0.699055291169506 0.699055291169506 0.699055291169506 0.7582071320641139 0.7582071320641139 0.7582071320641139 
0.7582071320641139 0.805402028610256 0.805402028610256 0.805402028610256 0.805402028610256 0.8398942467365311 0.8398942467365311 0.8398942467365311 0.8398942467365311 
0.8611394285155828 0.8611394285155828 0.8611394285155828 0.8611394285155828 0.8688019432076837 0.8688019432076837 0.8688019432076837 0.8688019432076837 0.8627562683746889 
0.8627562683746889 0.8627562683746889 0.8627562683746889 0.8430864416446774 0.8430864416446774 0.8430864416446774 0.8430864416446774 0.8100957699360857 0.8100957699360857 
0.8100957699360857 0.8100957699360857 0.7643346429645841 0.7643346429645841 0.7643346429645841 0.7643346429645841 0.7066338751203168 0.7066338751203168 0.7066338751203168 
0.7066338751203168 0.6381169050474107 0.6381169050474107 0.6381169050474107 0.6381169050474107 0.5601590289271521 0.5601590289271521 0.5601590289271521 0.5601590289271521 
0.4742718888296565 0.4742718888296565 0.4742718888296565 0.4742718888296565 0.3819271920372592 0.3819271920372592 0.3819271920372592 0.3819271920372592 0.2843814523070936 
0.2843814523070936 0.2843814523070936 0.2843814523070936 0.1825824891102287 0.1825824891102287 0.1825824891102287 0.1825824891102287 0.07728387935562417 0.07728387935562417 
0.07728387935562417 0.07728387935562417 -0.03092090456868379 -0.03092090456868379 -0.03092090456868379 -0.03092090456868379 -0.1402185830009046 -0.1402185830009046 -0.1402185830009046 
-0.1402185830009046 -0.2525746118643277 -0.2525746118643277 -0.2525746118643277 -0.2525746118643277 -0.3482625540646803 -0.3482625540646803 -0.3482625540646803 -0.3482625540646803 
-0.5068617460096072 -0.5068617460096072 -0.5068617460096072 -0.5068617460096072 -0.621490289875569 -0.621490289875569 -0.621490289875569 -0.621490289875569 -0.6723876336925657 
-0.6723876336925657 -0.6723876336925657 -0.6723876336925657 -0.739390994294792 -0.739390994294792 -0.739390994294792 -0.739390994294792 -0.8002062753919766 -0.8002062753919766 
-0.8002062753919766 -0.8002062753919766 -0.8491014775603973 -0.8491014775603973 -0.8491014775603973 -0.8491014775603973 -0.8845476220573705 -0.8845476220573705 -0.8845476220573705 
-0.8845476220573705 -0.9061065913173555 -0.9061065913173555 -0.9061065913173555 -0.9061065913173555 -0.9136218167024214 -0.9136218167024214 -0.9136218167024214 -0.9136218167024214 
-0.9070327143858293 -0.9070327143858293 -0.9070327143858293 -0.9070327143858293 -0.8863782647043693 -0.8863782647043693 -0.8863782647043693 -0.8863782647043693 -0.8518633762536588 
-0.8518633762536588 -0.8518633762536588 -0.8518633762536588 -0.8039251610851159 -0.8039251610851159 -0.8039251610851159 -0.8039251610851159 -0.7432616488633412 -0.7432616488633412 
-0.7432616488633412 -0.7432616488633412 -0.6708198990715123 -0.6708198990715123 -0.6708198990715123 -0.6708198990715123 -0.5877617453850046 -0.5877617453850046 -0.5877617453850046 
-0.5877617453850046 -0.4954223200898851 -0.4954223200898851 -0.4954223200898851 -0.4954223200898851 -0.3952738174493964 -0.3952738174493964 -0.3952738174493964 -0.3952738174493964 
-0.2888988829202234 -0.2888988829202234 -0.2888988829202234 -0.2888988829202234 -0.177970608297565 -0.177970608297565 -0.177970608297565 -0.177970608297565 -0.06423355582862746 
-0.06423355582862746 -0.06423355582862746 -0.06423355582862746 0.05051938292210584 0.05051938292210584 0.05051938292210584 0.05051938292210584 0.1644754792558844 0.1644754792558844 
0.1644754792558844 0.1644754792558844 0.2758339288984862 0.2758339288984862 0.2758339288984862 0.2758339288984862 0.3828372632937814 0.3828372632937814 0.3828372632937814 
0.3828372632937814 0.4837997673549214 0.4837997673549214 0.4837997673549214 0.4837997673549214 0.5771324806365357 0.5771324806365357 0.5771324806365357 0.5771324806365357 