Title = Result/Post/Linear_Advection_2D/FVM/MLP_u1_Least_Square/Sine_Wave_2D/Quad50/
FileType = Solution
Variables = q
Zone T = Result/Post/Linear_Advection_2D/FVM/MLP_u1_Least_Square/Sine_Wave_2D/Quad50/
ZoneType = FETriangle
Nodes = 10000
Elements = 5000
DataPacking = Block
StrandID = 8
SolutionTime = 0.7000000000000001
-0.7710879177467104 -0.7710879177467104 -0.7710879177467104 -0.7710879177467104 -0.740402217018287 -0.740402217018287 -0.740402217018287 -0.740402217018287 -0.6868228903336768 -0.6868228903336768 
-0.6868228903336768 -0.6868228903336768 -0.6201187884557 -0.6201187884557 -0.6201187884557 -0.6201187884557 -0.5431732296361723 -0.5431732296361723 -0.5431732296361723 
-0.5431732296361723 -0.4575851984113839 -0.4575851984113839 -0.4575851984113839 -0.4575851984113839 -0.3647760574403219 -0.3647760574403219 -0.3647760574403219 -0.3647760574403219 
-0.2662132670511354 -0.2662132670511354 -0.2662132670511354 -0.2662132670511354 -0.1634431914186574 -0.1634431914186574 -0.1634431914186574 -0.1634431914186574 -0.05808362349497651 
-0.05808362349497651 -0.05808362349497651 -0.05808362349497651 0.04819776132579814 0.04819776132579814 0.04819776132579814 0.04819776132579814 0.1537148385979926 0.1537148385979926 
0.1537148385979926 0.1537148385979926 0.2567980058567618 0.2567980058567618 0.2567980058567618 0.2567980058567618 0.3558239538867061 0.3558239538867061 0.3558239538867061 
0.3558239538867061 0.4492376139373563 0.4492376139373563 0.4492376139373563 0.4492376139373563 0.5355707642824817 0.5355707642824817 0.5355707642824817 0.5355707642824817 
0.6134625121290516 0.6134625121290516 0.6134625121290516 0.6134625121290516 0.6816821263821892 0.6816821263821892 0.6816821263821892 0.6816821263821892 0.7391512815396305 
0.7391512815396305 0.7391512815396305 0.7391512815396305 0.7849631287057217 0.7849631287057217 0.7849631287057217 0.7849631287057217 0.8183961985326365 0.8183961985326365 
0.8183961985326365 0.8183961985326365 0.8389228883338952 0.8389228883338952 0.8389228883338952 0.8389228883338952 0.8461979259503055 0.8461979259503055 0.8461979259503055 
0.8461979259503055 0.8401609677216437 0.8401609677216437 0.8401609677216437 0.8401609677216437 0.8208573578515768 0.8208573578515768 0.8208573578515768 0.8208573578515768 
0.7885732986798099 0.7885732986798099 0.7885732986798099 0.7885732986798099 0.7438206466596259 0.7438206466596259 0.7438206466596259 0.7438206466596259 0.6873860846141594 
0.6873860846141594 0.6873860846141594 0.6873860846141594 0.6203671358505636 0.6203671358505636 0.6203671358505636 0.6203671358505636 0.544164120157722 0.544164120157722 
0.544164120157722 0.544164120157722 0.4603623940754205 0.4603623940754205 0.4603623940754205 0.4603623940754205 0.3705070648320617 0.3705070648320617 0.3705070648320617 
0.3705070648320617 0.2758473810118952 0.2758473810118952 0.2758473810118952 0.2758473810118952 0.1771937582790805 0.1771937582790805 0.1771937582790805 0.1771937582790805 
0.07501369503605453 0.07501369503605453 0.07501369503605453 0.07501369503605453 -0.03021980534254683 -0.03021980534254683 -0.03021980534254683 -0.03021980534254683 -0.1375684140440215 
-0.1375684140440215 -0.1375684140440215 -0.1375684140440215 -0.245295286578268 -0.245295286578268 -0.245295286578268 -0.245295286578268 -0.3508587089802316 -0.3508587089802316 
-0.3508587089802316 -0.3508587089802316 -0.4512688744390612 -0.4512688744390612 -0.4512688744390612 -0.4512688744390612 -0.5436506120865623 -0.5436506120865623 -0.5436506120865623 
-0.5436506120865623 -0.6257481633415001 -0.6257481633415001 -0.6257481633415001 -0.6257481633415001 -0.6961637921589993 -0.6961637921589993 -0.6961637921589993 -0.6961637921589993 
-0.7542426656635026 -0.7542426656635026 -0.7542426656635026 -0.7542426656635026 -0.7998436114112002 -0.7998436114112002 -0.7998436114112002 -0.7998436114112002 -0.8326806555282658 
-0.8326806555282658 -0.8326806555282658 -0.8326806555282658 -0.8533831196462668 -0.8533831196462668 -0.8533831196462668 -0.8533831196462668 -0.858651794661863 -0.858651794661863 
-0.858651794661863 -0.858651794661863 -0.8593204074446247 -0.8593204074446247 -0.8593204074446247 -0.8593204074446247 -0.815732290618339 -0.815732290618339 -0.815732290618339 
-0.815732290618339 -0.8003542575664166 -0.8003542575664166 -0.8003542575664166 -0.8003542575664166 -0.7686400631394258 -0.7686400631394258 -0.7686400631394258 -0.7686400631394258 
-0.7131850368077487 -0.7131850368077487 -0.7131850368077487 -0.7131850368077487 -0.6439539473704399 -0.6439539473704399 -0.6439539473704399 -0.6439539473704399 -0.5640483248280816 
-0.5640483248280816 -0.5640483248280816 -0.5640483248280816 -0.4751617426540833 -0.4751617426540833 -0.4751617426540833 -0.4751617426540833 -0.3787822578669233 -0.3787822578669233 
-0.3787822578669233 -0.3787822578669233 -0.2764353614966835 -0.2764353614966835 -0.2764353614966835 -0.2764353614966835 -0.16972493436762 -0.16972493436762 -0.16972493436762 
-0.16972493436762 -0.0603284089804467 -0.0603284089804467 -0.0603284089804467 -0.0603284089804467 0.05002439290873635 0.05002439290873635 0.05002439290873635 0.05002439290873635 
0.1595836705375986 0.1595836705375986 0.1595836705375986 0.1595836705375986 0.2666161172473394 0.2666161172473394 0.2666161172473394 0.2666161172473394 0.369436164023405 
0.369436164023405 0.369436164023405 0.369436164023405 0.4664290804695422 0.4664290804695422 0.4664290804695422 0.4664290804695422 0.556070453172254 0.556070453172254 
0.556070453172254 0.556070453172254 0.6369473989602016 0.6369473989602016 0.6369473989602016 0.6369473989602016 0.7077821161182318 0.7077821161182318 0.7077821161182318 
0.7077821161182318 0.767455067083346 0.767455067083346 0.767455067083346 0.767455067083346 0.8150242452711631 0.8150242452711631 0.8150242452711631 0.8150242452711631 
0.8497388056316273 0.8497388056316273 0.8497388056316273 0.8497388056316273 0.871048319137379 0.871048319137379 0.871048319137379 0.871048319137379 0.8786183798249889 
0.8786183798249889 0.8786183798249889 0.8786183798249889 0.8723418074630336 0.8723418074630336 0.8723418074630336 0.8723418074630336 0.8523032474155868 0.8523032474155868 
0.8523032474155868 0.8523032474155868 0.8187878007933449 0.8187878007933449 0.8187878007933449 0.8187878007933449 0.7723259921154272 0.7723259921154272 0.7723259921154272 
0.7723259921154272 0.7137317885355802 0.7137317885355802 0.7137317885355802 0.7137317885355802 0.6441445438506899 0.6441445438506899 0.6441445438506899 0.6441445438506899 
0.5650182919591384 0.5650182919591384 0.5650182919591384 0.5650182919591384 0.478000902196641 0.478000902196641 0.478000902196641 0.478000902196641 0.384700232689663 
0.384700232689663 0.384700232689663 0.384700232689663 0.2864174056397062 0.2864174056397062 0.2864174056397062 0.2864174056397062 0.1839959624999661 0.1839959624999661 
0.1839959624999661 0.1839959624999661 0.07791936138672946 0.07791936138672946 0.07791936138672946 0.07791936138672946 -0.03132736384930036 -0.03132736384930036 -0.03132736384930036 
-0.03132736384930036 -0.1427776521050552 -0.1427776521050552 -0.1427776521050552 -0.1427776521050552 -0.2546334540259568 -0.2546334540259568 -0.2546334540259568 -0.2546334540259568 
-0.364255527957472 -0.364255527957472 -0.364255527957472 -0.364255527957472 -0.4685337388839195 -0.4685337388839195 -0.4685337388839195 -0.4685337388839195 -0.5644743730632422 
-0.5644743730632422 -0.5644743730632422 -0.5644743730632422 -0.6497285012077267 -0.6497285012077267 -0.6497285012077267 -0.6497285012077267 -0.7228429436577377 -0.7228429436577377 
-0.7228429436577377 -0.7228429436577377 -0.783140255702783 -0.783140255702783 -0.783140255702783 -0.783140255702783 -0.8304809965834807 -0.8304809965834807 -0.8304809965834807 
-0.8304809965834807 -0.8645641449051011 -0.8645641449051011 -0.8645641449051011 -0.8645641449051011 -0.886069172234516 -0.886069172234516 -0.886069172234516 -0.886069172234516 
-0.8914897542085591 -0.8914897542085591 -0.8914897542085591 -0.8914897542085591 -0.8924308264831678 -0.8924308264831678 -0.8924308264831678 -0.8924308264831678 -0.8470043677169677 
-0.8470043677169677 -0.8470043677169677 -0.8470043677169677 -0.8354933820624317 -0.8354933820624317 -0.8354933820624317 -0.8354933820624317 -0.8021737879436051 -0.8021737879436051 
-0.8021737879436051 -0.8021737879436051 -0.7443131804738075 -0.7443131804738075 -0.7443131804738075 -0.7443131804738075 -0.6721223356918444 -0.6721223356918444 -0.6721223356918444 
-0.6721223356918444 -0.5887648879975256 -0.5887648879975256 -0.5887648879975256 -0.5887648879975256 -0.4960077562470289 -0.4960077562470289 -0.4960077562470289 -0.4960077562470289 
-0.3954136554289425 -0.3954136554289425 -0.3954136554289425 -0.3954136554289425 -0.2885840034796566 -0.2885840034796566 -0.2885840034796566 -0.2885840034796566 -0.1771980801525271 
-0.1771980801525271 -0.1771980801525271 -0.1771980801525271 -0.06300881630757776 -0.06300881630757776 -0.06300881630757776 -0.06300881630757776 0.05217793803786944 0.05217793803786944 
0.05217793803786944 0.05217793803786944 0.1665360794570142 0.1665360794570142 0.1665360794570142 0.1665360794570142 0.2782566733822487 0.2782566733822487 0.2782566733822487 
0.2782566733822487 0.3855804332070477 0.3855804332070477 0.3855804332070477 0.3855804332070477 0.4868219378179778 0.4868219378179778 0.4868219378179778 0.4868219378179778 
0.5803900925120957 0.5803900925120957 0.5803900925120957 0.5803900925120957 0.6648102201099887 0.6648102201099887 0.6648102201099887 0.6648102201099887 0.7387485728992831 
0.7387485728992831 0.7387485728992831 0.7387485728992831 0.8010364165484135 0.8010364165484135 0.8010364165484135 0.8010364165484135 0.8506895649974903 0.8506895649974903 
0.8506895649974903 0.8506895649974903 0.8869240245301616 0.8869240245301616 0.8869240245301616 0.8869240245301616 0.9091663126881322 0.9091663126881322 0.9091663126881322 
0.9091663126881322 0.9170702956945492 0.9170702956945492 0.9170702956945492 0.9170702956945492 0.9105211779297153 0.9105211779297153 0.9105211779297153 0.9105211779297153 
0.8896090587400863 0.8896090587400863 0.8896090587400863 0.8896090587400863 0.854634569660167 0.854634569660167 0.854634569660167 0.854634569660167 0.8061466677435443 
0.8061466677435443 0.8061466677435443 0.8061466677435443 0.7449925106841149 0.7449925106841149 0.7449925106841149 0.7449925106841149 0.672360637174253 0.672360637174253 
0.672360637174253 0.672360637174253 0.5897683987204988 0.5897683987204988 0.5897683987204988 0.5897683987204988 0.4989369805884525 0.4989369805884525 0.4989369805884525 
0.4989369805884525 0.4015474005070351 0.4015474005070351 0.4015474005070351 0.4015474005070351 0.2989616069220367 0.2989616069220367 0.2989616069220367 0.2989616069220367 
0.192063019148496 0.192063019148496 0.192063019148496 0.192063019148496 0.0813561587977371 0.0813561587977371 0.0813561587977371 0.0813561587977371 -0.03265675241970083 
-0.03265675241970083 -0.03265675241970083 -0.03265675241970083 -0.1489733770948492 -0.1489733770948492 -0.1489733770948492 -0.1489733770948492 -0.2657226987176416 -0.2657226987176416 
-0.2657226987176416 -0.2657226987176416 -0.3801516847170626 -0.3801516847170626 -0.3801516847170626 -0.3801516847170626 -0.4890107472517511 -0.4890107472517511 -0.4890107472517511 
-0.4890107472517511 -0.5891685946345598 -0.5891685946345598 -0.5891685946345598 -0.5891685946345598 -0.6781671883401873 -0.6781671883401873 -0.6781671883401873 -0.6781671883401873 
-0.7544867293567206 -0.7544867293567206 -0.7544867293567206 -0.7544867293567206 -0.8174211728993863 -0.8174211728993863 -0.8174211728993863 -0.8174211728993863 -0.8668279986298227 
-0.8668279986298227 -0.8668279986298227 -0.8668279986298227 -0.9023973949762025 -0.9023973949762025 -0.9023973949762025 -0.9023973949762025 -0.9248384476550291 -0.9248384476550291 
-0.9248384476550291 -0.9248384476550291 -0.9305124091785669 -0.9305124091785669 -0.9305124091785669 -0.9305124091785669 -0.9314900505430669 -0.9314900505430669 -0.9314900505430669 
-0.9314900505430669 -0.8841084085082846 -0.8841084085082846 -0.8841084085082846 -0.8841084085082846 -0.8619495865950492 -0.8619495865950492 -0.8619495865950492 -0.8619495865950492 
-0.8274972860750204 -0.8274972860750204 -0.8274972860750204 -0.8274972860750204 -0.7677342437129453 -0.7677342437129453 -0.7677342437129453 -0.7677342437129453 -0.6932503122311445 
-0.6932503122311445 -0.6932503122311445 -0.6932503122311445 -0.6072813187495262 -0.6072813187495262 -0.6072813187495262 -0.6072813187495262 -0.5116255945651685 -0.5116255945651685 
-0.5116255945651685 -0.5116255945651685 -0.4078828922066698 -0.4078828922066698 -0.4078828922066698 -0.4078828922066698 -0.2977019583710648 -0.2977019583710648 -0.2977019583710648 
-0.2977019583710648 -0.1828157227920637 -0.1828157227920637 -0.1828157227920637 -0.1828157227920637 -0.06503414843216354 -0.06503414843216354 -0.06503414843216354 -0.06503414843216354 
0.0537787124505093 0.0537787124505093 0.0537787124505093 0.0537787124505093 0.1717385689732515 0.1717385689732515 0.1717385689732515 0.1717385689732515 0.2869792392437496 
0.2869792392437496 0.2869792392437496 0.2869792392437496 0.3976858735554479 0.3976858735554479 0.3976858735554479 0.3976858735554479 0.5021197835169182 0.5021197835169182 
0.5021197835169182 0.5021197835169182 0.5986395069806736 0.5986395069806736 0.5986395069806736 0.5986395069806736 0.685723510407348 0.685723510407348 0.685723510407348 
0.685723510407348 0.7619955286748343 0.7619955286748343 0.7619955286748343 0.7619955286748343 0.8262493086237019 0.8262493086237019 0.8262493086237019 0.8262493086237019 
0.877469434000711 0.877469434000711 0.877469434000711 0.877469434000711 0.9148476259416716 0.9148476259416716 0.9148476259416716 0.9148476259416716 0.9377916166774143 
0.9377916166774143 0.9377916166774143 0.9377916166774143 0.9459380106561119 0.9459380106561119 0.9459380106561119 0.9459380106561119 0.9391861691428958 0.9391861691428958 
0.9391861691428958 0.9391861691428958 0.9176227408345571 0.9176227408345571 0.9176227408345571 0.9176227408345571 0.8815559875620648 0.8815559875620648 0.8815559875620648 
0.8815559875620648 0.8315485151601757 0.8315485151601757 0.8315485151601757 0.8315485151601757 0.7684743159496761 0.7684743159496761 0.7684743159496761 0.7684743159496761 
0.6935578722192266 0.6935578722192266 0.6935578722192266 0.6935578722192266 0.6083636463143949 0.6083636463143949 0.6083636463143949 0.6083636463143949 0.5146674187925702 
0.5146674187925702 0.5146674187925702 0.5146674187925702 0.4142050729008827 0.4142050729008827 0.4142050729008827 0.4142050729008827 0.3083847999264483 0.3083847999264483 
0.3083847999264483 0.3083847999264483 0.1981211227480283 0.1981211227480283 0.1981211227480283 0.1981211227480283 0.08393568392899145 0.08393568392899145 0.08393568392899145 
0.08393568392899145 -0.03365561723615162 -0.03365561723615162 -0.03365561723615162 -0.03365561723615162 -0.1536238209531334 -0.1536238209531334 -0.1536238209531334 -0.1536238209531334 
-0.2740443107269309 -0.2740443107269309 -0.2740443107269309 -0.2740443107269309 -0.3920801462360429 -0.3920801462360429 -0.3920801462360429 -0.3920801462360429 -0.5043781309345414 
-0.5043781309345414 -0.5043781309345414 -0.5043781309345414 -0.6077038538813544 -0.6077038538813544 -0.6077038538813544 -0.6077038538813544 -0.6995166332367728 -0.6995166332367728 
-0.6995166332367728 -0.6995166332367728 -0.77824551726679 -0.77824551726679 -0.77824551726679 -0.77824551726679 -0.8431619745840981 -0.8431619745840981 -0.8431619745840981 
-0.8431619745840981 -0.8941212126657674 -0.8941212126657674 -0.8941212126657674 -0.8941212126657674 -0.9308083982615256 -0.9308083982615256 -0.9308083982615256 -0.9308083982615256 
-0.9539504417993965 -0.9539504417993965 -0.9539504417993965 -0.9539504417993965 -0.9598212686158998 -0.9598212686158998 -0.9598212686158998 -0.9598212686158998 -0.9607019219797893 
-0.9607019219797893 -0.9607019219797893 -0.9607019219797893 -0.9120069947575336 -0.9120069947575336 -0.9120069947575336 -0.9120069947575336 -0.8758217497681307 -0.8758217497681307 
-0.8758217497681307 -0.8758217497681307 -0.840827620744397 -0.840827620744397 -0.840827620744397 -0.840827620744397 -0.7800797510875733 -0.7800797510875733 -0.7800797510875733 
-0.7800797510875733 -0.7043653227761435 -0.7043653227761435 -0.7043653227761435 -0.7043653227761435 -0.6169976641360223 -0.6169976641360223 -0.6169976641360223 -0.6169976641360223 
-0.5198049494271619 -0.5198049494271619 -0.5198049494271619 -0.5198049494271619 -0.4144063305763058 -0.4144063305763058 -0.4144063305763058 -0.4144063305763058 -0.3024703352064093 
-0.3024703352064093 -0.3024703352064093 -0.3024703352064093 -0.1857539920977311 -0.1857539920977311 -0.1857539920977311 -0.1857539920977311 -0.06609487096063092 -0.06609487096063092 
-0.06609487096063092 -0.06609487096063092 0.054613487194038 0.054613487194038 0.054613487194038 0.054613487194038 0.1744567607345796 0.1744567607345796 0.1744567607345796 
0.1744567607345796 0.2915391722133769 0.2915391722133769 0.2915391722133769 0.2915391722133769 0.4040171687505563 0.4040171687505563 0.4040171687505563 0.4040171687505563 
0.5101244636468083 0.5101244636468083 0.5101244636468083 0.5101244636468083 0.6081932592544126 0.6081932592544126 0.6081932592544126 0.6081932592544126 0.69667716300423 
0.69667716300423 0.69667716300423 0.69667716300423 0.7741769778999508 0.7741769778999508 0.7741769778999508 0.7741769778999508 0.8394657420109005 0.8394657420109005 
0.8394657420109005 0.8394657420109005 0.8915108170013084 0.8915108170013084 0.8915108170013084 0.8915108170013084 0.9294886646942886 0.9294886646942886 0.9294886646942886 
0.9294886646942886 0.9528046065095547 0.9528046065095547 0.9528046065095547 0.9528046065095547 0.961054250694352 0.961054250694352 0.961054250694352 0.961054250694352 
0.9542097221726402 0.9542097221726402 0.9542097221726402 0.9542097221726402 0.9323211792324111 0.9323211792324111 0.9323211792324111 0.9323211792324111 0.8956862875281522 
0.8956862875281522 0.8956862875281522 0.8956862875281522 0.8448848488691062 0.8448848488691062 0.8448848488691062 0.8448848488691062 0.7808064998517592 0.7808064998517592 
0.7808064998517592 0.7808064998517592 0.7046932016997238 0.7046932016997238 0.7046932016997238 0.7046932016997238 0.6181338715694228 0.6181338715694228 0.6181338715694228 
0.6181338715694228 0.5229326101758816 0.5229326101758816 0.5229326101758816 0.5229326101758816 0.4208547789211678 0.4208547789211678 0.4208547789211678 0.4208547789211678 
0.3133342068094603 0.3133342068094603 0.3133342068094603 0.3133342068094603 0.2013034619942302 0.2013034619942302 0.2013034619942302 0.2013034619942302 0.08529426001708718 
0.08529426001708718 0.08529426001708718 0.08529426001708718 -0.03417062491111145 -0.03417062491111145 -0.03417062491111145 -0.03417062491111145 -0.1560500204131135 -0.1560500204131135 
-0.1560500204131135 -0.1560500204131135 -0.278393542591116 -0.278393542591116 -0.278393542591116 -0.278393542591116 -0.3983219014913909 -0.3983219014913909 -0.3983219014913909 
-0.3983219014913909 -0.5124276282427573 -0.5124276282427573 -0.5124276282427573 -0.5124276282427573 -0.6174207513801202 -0.6174207513801202 -0.6174207513801202 -0.6174207513801202 
-0.710715101855085 -0.710715101855085 -0.710715101855085 -0.710715101855085 -0.790711193544495 -0.790711193544495 -0.790711193544495 -0.790711193544495 -0.8566679868437089 
-0.8566679868437089 -0.8566679868437089 -0.8566679868437089 -0.9084398374636563 -0.9084398374636563 -0.9084398374636563 -0.9084398374636563 -0.945709270609228 -0.945709270609228 
-0.945709270609228 -0.945709270609228 -0.9692182117121617 -0.9692182117121617 -0.9692182117121617 -0.9692182117121617 -0.975176052584966 -0.975176052584966 -0.975176052584966 
-0.975176052584966 -0.9759225978943002 -0.9759225978943002 -0.9759225978943002 -0.9759225978943002 -0.926607159534982 -0.926607159534982 -0.926607159534982 -0.926607159534982 
-0.876089811543606 -0.876089811543606 -0.876089811543606 -0.876089811543606 -0.8411092246390501 -0.8411092246390501 -0.8411092246390501 -0.8411092246390501 -0.780356451712563 
-0.780356451712563 -0.780356451712563 -0.780356451712563 -0.7046133882437752 -0.7046133882437752 -0.7046133882437752 -0.7046133882437752 -0.6172047612896119 -0.6172047612896119 
-0.6172047612896119 -0.6172047612896119 -0.5199684309755087 -0.5199684309755087 -0.5199684309755087 -0.5199684309755087 -0.4145290717991801 -0.4145290717991801 -0.4145290717991801 
-0.4145290717991801 -0.3025556554671168 -0.3025556554671168 -0.3025556554671168 -0.3025556554671168 -0.1858046842876262 -0.1858046842876262 -0.1858046842876262 -0.1858046842876262 
-0.06611301377517409 -0.06611301377517409 -0.06611301377517409 -0.06611301377517409 0.05462606709777294 0.05462606709777294 0.05462606709777294 0.05462606709777294 0.174498334088687 
0.174498334088687 0.174498334088687 0.174498334088687 0.2916082499049719 0.2916082499049719 0.2916082499049719 0.2916082499049719 0.4041127332646124 0.4041127332646124 
0.4041127332646124 0.4041127332646124 0.5102460802909203 0.5102460802909203 0.5102460802909203 0.5102460802909203 0.6083409340819198 0.6083409340819198 0.6083409340819198 
0.6083409340819198 0.6968509346530515 0.6968509346530515 0.6968509346530515 0.6968509346530515 0.7743763335104277 0.7743763335104277 0.7743763335104277 0.7743763335104277 
0.8396889057241061 0.8396889057241061 0.8396889057241061 0.8396889057241061 0.8917546939565006 0.8917546939565006 0.8917546939565006 0.8917546939565006 0.929748088835276 
0.929748088835276 0.929748088835276 0.929748088835276 0.9530682394515633 0.9530682394515633 0.9530682394515633 0.9530682394515633 0.9613188404216972 0.9613188404216972 
0.9613188404216972 0.9613188404216972 0.9544819220296608 0.9544819220296608 0.9544819220296608 0.9544819220296608 0.9326001669776014 0.9326001669776014 0.9326001669776014 
0.9326001669776014 0.8959618274267293 0.8959618274267293 0.8959618274267293 0.8959618274267293 0.845151672197558 0.845151672197558 0.845151672197558 0.845151672197558 
0.7810596716074066 0.7810596716074066 0.7810596716074066 0.7810596716074066 0.7049270196639326 0.7049270196639326 0.7049270196639326 0.7049270196639326 0.6183419397129776 
0.6183419397129776 0.6183419397129776 0.6183419397129776 0.5231086981911058 0.5231086981911058 0.5231086981911058 0.5231086981911058 0.4209945896728172 0.4209945896728172 
0.4209945896728172 0.4209945896728172 0.3134367869949166 0.3134367869949166 0.3134367869949166 0.3134367869949166 0.2013715405345997 0.2013715405345997 0.2013715405345997 
0.2013715405345997 0.08533259626348877 0.08533259626348877 0.08533259626348877 0.08533259626348877 -0.03415825512002528 -0.03415825512002528 -0.03415825512002528 -0.03415825512002528 
-0.156063573792554 -0.156063573792554 -0.156063573792554 -0.156063573792554 -0.2784373546769567 -0.2784373546769567 -0.2784373546769567 -0.2784373546769567 -0.3984026121570626 
-0.3984026121570626 -0.3984026121570626 -0.3984026121570626 -0.5125504974966024 -0.5125504974966024 -0.5125504974966024 -0.5125504974966024 -0.6175865333281013 -0.6175865333281013 
-0.6175865333281013 -0.6175865333281013 -0.7109191954848515 -0.7109191954848515 -0.7109191954848515 -0.7109191954848515 -0.790945254518063 -0.790945254518063 -0.790945254518063 
-0.790945254518063 -0.8569227145746925 -0.8569227145746925 -0.8569227145746925 -0.8569227145746925 -0.9087073752269285 -0.9087073752269285 -0.9087073752269285 -0.9087073752269285 
-0.9459844973980227 -0.9459844973980227 -0.9459844973980227 -0.9459844973980227 -0.9694870857926713 -0.9694870857926713 -0.9694870857926713 -0.9694870857926713 -0.9754476959298427 
-0.9754476959298427 -0.9754476959298427 -0.9754476959298427 -0.976164352363595 -0.976164352363595 -0.976164352363595 -0.976164352363595 -0.9268621315905046 -0.9268621315905046 
-0.9268621315905046 -0.9268621315905046 -0.8626133440902788 -0.8626133440902788 -0.8626133440902788 -0.8626133440902788 -0.8281694179287757 -0.8281694179287757 -0.8281694179287757 
-0.8281694179287757 -0.7683630130827701 -0.7683630130827701 -0.7683630130827701 -0.7683630130827701 -0.6938001367050586 -0.6938001367050586 -0.6938001367050586 -0.6938001367050586 
-0.6077405741521913 -0.6077405741521913 -0.6077405741521913 -0.6077405741521913 -0.511996313982791 -0.511996313982791 -0.511996313982791 -0.511996313982791 -0.4081711488093627 
-0.4081711488093627 -0.4081711488093627 -0.4081711488093627 -0.2979121276762209 -0.2979121276762209 -0.2979121276762209 -0.2979121276762209 -0.1829505643480697 -0.1829505643480697 
-0.1829505643480697 -0.1829505643480697 -0.06509562948664681 -0.06509562948664681 -0.06509562948664681 -0.06509562948664681 0.05378813684198647 0.05378813684198647 0.05378813684198647 
0.05378813684198647 0.1718156722925996 0.1718156722925996 0.1718156722925996 0.1718156722925996 0.2871204903360715 0.2871204903360715 0.2871204903360715 0.2871204903360715 
0.3978882021175792 0.3978882021175792 0.3978882021175792 0.3978882021175792 0.5023811592601161 0.5023811592601161 0.5023811592601161 0.5023811592601161 0.5989590045122264 
0.5989590045122264 0.5989590045122264 0.5989590045122264 0.6861007191544062 0.6861007191544062 0.6861007191544062 0.6861007191544062 0.7624294160644461 0.7624294160644461 
0.7624294160644461 0.7624294160644461 0.8267365464981731 0.8267365464981731 0.8267365464981731 0.8267365464981731 0.8780042562447498 0.8780042562447498 0.8780042562447498 
0.8780042562447498 0.9154202030401555 0.9154202030401555 0.9154202030401555 0.9154202030401555 0.9383970294683222 0.9383970294683222 0.9383970294683222 0.9383970294683222 
0.9465621813005052 0.9465621813005052 0.9465621813005052 0.9465621813005052 0.9398139933795431 0.9398139933795431 0.9398139933795431 0.9398139933795431 0.9182534511879956 
0.9182534511879956 0.9182534511879956 0.9182534511879956 0.8821779665922983 0.8821779665922983 0.8821779665922983 0.8821779665922983 0.8321542089252343 0.8321542089252343 
0.8321542089252343 0.8321542089252343 0.769052850386431 0.769052850386431 0.769052850386431 0.769052850386431 0.6940954350913464 0.6940954350913464 0.6940954350913464 
0.6940954350913464 0.6088436899842674 0.6088436899842674 0.6088436899842674 0.6088436899842674 0.5150735824824642 0.5150735824824642 0.5150735824824642 0.5150735824824642 
0.414526237937587 0.414526237937587 0.414526237937587 0.414526237937587 0.3086195463045881 0.3086195463045881 0.3086195463045881 0.3086195463045881 0.1982787524929583 
0.1982787524929583 0.1982787524929583 0.1982787524929583 0.08403134733523882 0.08403134733523882 0.08403134733523882 0.08403134733523882 -0.0336099803651046 -0.0336099803651046 
-0.0336099803651046 -0.0336099803651046 -0.1536277843645103 -0.1536277843645103 -0.1536277843645103 -0.1536277843645103 -0.2741110096411069 -0.2741110096411069 -0.2741110096411069 
-0.2741110096411069 -0.3922301778732909 -0.3922301778732909 -0.3922301778732909 -0.3922301778732909 -0.504628599284631 -0.504628599284631 -0.504628599284631 -0.504628599284631 
-0.608059018999854 -0.608059018999854 -0.608059018999854 -0.608059018999854 -0.6999653203761249 -0.6999653203761249 -0.6999653203761249 -0.6999653203761249 -0.7787658789404489 
-0.7787658789404489 -0.7787658789404489 -0.7787658789404489 -0.8437298218335241 -0.8437298218335241 -0.8437298218335241 -0.8437298218335241 -0.8947170619055522 -0.8947170619055522 
-0.8947170619055522 -0.8947170619055522 -0.9314220907909397 -0.9314220907909397 -0.9314220907909397 -0.9314220907909397 -0.9545750850370679 -0.9545750850370679 -0.9545750850370679 
-0.9545750850370679 -0.960465828765346 -0.960465828765346 -0.960465828765346 -0.960465828765346 -0.961291494820391 -0.961291494820391 -0.961291494820391 -0.961291494820391 
-0.9126122953672572 -0.9126122953672572 -0.9126122953672572 -0.9126122953672572 -0.8355494998052 -0.8355494998052 -0.8355494998052 -0.8355494998052 -0.8021823833910525 
-0.8021823833910525 -0.8021823833910525 -0.8021823833910525 -0.7442621166536014 -0.7442621166536014 -0.7442621166536014 -0.7442621166536014 -0.6720516882428624 -0.6720516882428624 
-0.6720516882428624 -0.6720516882428624 -0.5887029836937022 -0.5887029836937022 -0.5887029836937022 -0.5887029836937022 -0.4959676614109088 -0.4959676614109088 -0.4959676614109088 
-0.4959676614109088 -0.3953996448701907 -0.3953996448701907 -0.3953996448701907 -0.3953996448701907 -0.2885964221142127 -0.2885964221142127 -0.2885964221142127 -0.2885964221142127 
-0.1772360607790831 -0.1772360607790831 -0.1772360607790831 -0.1772360607790831 -0.06307168206747832 -0.06307168206747832 -0.06307168206747832 -0.06307168206747832 0.05208996498326589 
0.05208996498326589 0.05208996498326589 0.05208996498326589 0.1664219210811058 0.1664219210811058 0.1664219210811058 0.1664219210811058 0.2781149555898805 0.2781149555898805 
0.2781149555898805 0.2781149555898805 0.3854104258479211 0.3854104258479211 0.3854104258479211 0.3854104258479211 0.486624561415483 0.486624561415483 0.486624561415483 
0.486624561415483 0.580168681904924 0.580168681904924 0.580168681904924 0.580168681904924 0.6645706626960106 0.6645706626960106 0.6645706626960106 0.6645706626960106 
0.7384986388355064 0.7384986388355064 0.7384986388355064 0.7384986388355064 0.800783946498291 0.800783946498291 0.800783946498291 0.800783946498291 0.8504419123895681 
0.8504419123895681 0.8504419123895681 0.8504419123895681 0.8866872343923846 0.8866872343923846 0.8866872343923846 0.8866872343923846 0.9089475178474586 0.9089475178474586 
0.9089475178474586 0.9089475178474586 0.9168723597182493 0.9168723597182493 0.9168723597182493 0.9168723597182493 0.910342866531281 0.910342866531281 0.910342866531281 
0.910342866531281 0.8894524261431371 0.8894524261431371 0.8894524261431371 0.8894524261431371 0.8545072746546183 0.8545072746546183 0.8545072746546183 0.8545072746546183 
0.8060549153613886 0.8060549153613886 0.8060549153613886 0.8060549153613886 0.7449369156275849 0.7449369156275849 0.7449369156275849 0.7449369156275849 0.6723345606833601 