Title = Result/Post/Linear_Advection_2D/FVM/MLP_u1_Least_Square/Sine_Wave_2D/Quad50/
FileType = Solution
Variables = q
Zone T = Result/Post/Linear_Advection_2D/FVM/MLP_u1_Least_Square/Sine_Wave_2D/Quad50/
ZoneType = FETriangle
Nodes = 10000
Elements = 5000
DataPacking = Block
StrandID = 1
SolutionTime = 0
0.003942649342761087 0.003942649342761087 0.003942649342761087 0.003942649342761087 0.01176577009292336 0.01176577009292336 0.01176577009292336 0.01176577009292336 0.01940333762018987 0.01940333762018987 
0.01940333762018987 0.01940333762018987 0.02673490292219393 0.02673490292219393 0.02673490292219393 0.02673490292219393 0.03364484283445811 0.03364484283445811 0.03364484283445811 
0.03364484283445811 0.04002418347676798 0.04002418347676798 0.04002418347676798 0.04002418347676798 0.04577231883636092 0.04577231883636092 0.04577231883636092 0.04577231883636092 
0.05079859738484657 0.05079859738484657 0.05079859738484657 0.05079859738484657 0.05502375170696201 0.05502375170696201 0.05502375170696201 0.05502375170696201 0.05838114859506263 
0.05838114859506263 0.05838114859506263 0.05838114859506263 0.06081783989461142 0.06081783989461142 0.06081783989461142 0.06081783989461142 0.06229539752820565 0.06229539752820565 
0.06229539752820565 0.06229539752820565 0.0627905195293134 0.0627905195293134 0.0627905195293134 0.0627905195293134 0.06229539752820565 0.06229539752820565 0.06229539752820565 
0.06229539752820565 0.06081783989461142 0.06081783989461142 0.06081783989461142 0.06081783989461142 0.05838114859506264 0.05838114859506264 0.05838114859506264 0.05838114859506264 
0.05502375170696201 0.05502375170696201 0.05502375170696201 0.05502375170696201 0.05079859738484657 0.05079859738484657 0.05079859738484657 0.05079859738484657 0.04577231883636092 
0.04577231883636092 0.04577231883636092 0.04577231883636092 0.04002418347676798 0.04002418347676798 0.04002418347676798 0.04002418347676798 0.0336448428344581 0.0336448428344581 
0.0336448428344581 0.0336448428344581 0.02673490292219393 0.02673490292219393 0.02673490292219393 0.02673490292219393 0.01940333762018987 0.01940333762018987 0.01940333762018987 
0.01940333762018987 0.01176577009292338 0.01176577009292338 0.01176577009292338 0.01176577009292338 0.003942649342761099 0.003942649342761099 0.003942649342761099 0.003942649342761099 
-0.003942649342761085 -0.003942649342761085 -0.003942649342761085 -0.003942649342761085 -0.01176577009292337 -0.01176577009292337 -0.01176577009292337 -0.01176577009292337 -0.01940333762018989 
-0.01940333762018989 -0.01940333762018989 -0.01940333762018989 -0.02673490292219392 -0.02673490292219392 -0.02673490292219392 -0.02673490292219392 -0.03364484283445809 -0.03364484283445809 
-0.03364484283445809 -0.03364484283445809 -0.04002418347676796 -0.04002418347676796 -0.04002418347676796 -0.04002418347676796 -0.04577231883636091 -0.04577231883636091 -0.04577231883636091 
-0.04577231883636091 -0.05079859738484652 -0.05079859738484652 -0.05079859738484652 -0.05079859738484652 -0.05502375170696198 -0.05502375170696198 -0.05502375170696198 -0.05502375170696198 
-0.05838114859506261 -0.05838114859506261 -0.05838114859506261 -0.05838114859506261 -0.06081783989461138 -0.06081783989461138 -0.06081783989461138 -0.06081783989461138 -0.06229539752820562 
-0.06229539752820562 -0.06229539752820562 -0.06229539752820562 -0.06279051952931337 -0.06279051952931337 -0.06279051952931337 -0.06279051952931337 -0.06229539752820563 -0.06229539752820563 
-0.06229539752820563 -0.06229539752820563 -0.06081783989461139 -0.06081783989461139 -0.06081783989461139 -0.06081783989461139 -0.0583811485950626 -0.0583811485950626 -0.0583811485950626 
-0.0583811485950626 -0.05502375170696197 -0.05502375170696197 -0.05502375170696197 -0.05502375170696197 -0.05079859738484655 -0.05079859738484655 -0.05079859738484655 -0.05079859738484655 
-0.0457723188363609 -0.0457723188363609 -0.0457723188363609 -0.0457723188363609 -0.04002418347676794 -0.04002418347676794 -0.04002418347676794 -0.04002418347676794 -0.03364484283445806 
-0.03364484283445806 -0.03364484283445806 -0.03364484283445806 -0.02673490292219388 -0.02673490292219388 -0.02673490292219388 -0.02673490292219388 -0.01940333762018987 -0.01940333762018987 
-0.01940333762018987 -0.01940333762018987 -0.01176577009292336 -0.01176577009292336 -0.01176577009292336 -0.01176577009292336 -0.003942649342761078 -0.003942649342761078 -0.003942649342761078 
-0.003942649342761078 0.01176577009292337 0.01176577009292337 0.01176577009292337 0.01176577009292337 0.03511175705587433 0.03511175705587433 0.03511175705587433 0.03511175705587433 
0.05790401063530717 0.05790401063530717 0.05790401063530717 0.05790401063530717 0.07978308337684192 0.07978308337684192 0.07978308337684192 0.07978308337684192 0.1004039292334201 
0.1004039292334201 0.1004039292334201 0.1004039292334201 0.119441345147587 0.119441345147587 0.119441345147587 0.119441345147587 0.1365950996979755 0.1365950996979755 
0.1365950996979755 0.1365950996979755 0.1515946679281695 0.1515946679281695 0.1515946679281695 0.1515946679281695 0.1642034976868712 0.1642034976868712 0.1642034976868712 
0.1642034976868712 0.1742227401966361 0.1742227401966361 0.1742227401966361 0.1742227401966361 0.1814943860178797 0.1814943860178797 0.1814943860178797 0.1814943860178797 
0.1859037569521305 0.1859037569521305 0.1859037569521305 0.1859037569521305 0.1873813145857247 0.1873813145857247 0.1873813145857247 0.1873813145857247 0.1859037569521304 
0.1859037569521304 0.1859037569521304 0.1859037569521304 0.1814943860178797 0.1814943860178797 0.1814943860178797 0.1814943860178797 0.1742227401966361 0.1742227401966361 
0.1742227401966361 0.1742227401966361 0.1642034976868712 0.1642034976868712 0.1642034976868712 0.1642034976868712 0.1515946679281695 0.1515946679281695 0.1515946679281695 
0.1515946679281695 0.1365950996979755 0.1365950996979755 0.1365950996979755 0.1365950996979755 0.119441345147587 0.119441345147587 0.119441345147587 0.119441345147587 
0.1004039292334201 0.1004039292334201 0.1004039292334201 0.1004039292334201 0.07978308337684192 0.07978308337684192 0.07978308337684192 0.07978308337684192 0.05790401063530716 
0.05790401063530716 0.05790401063530716 0.05790401063530716 0.03511175705587439 0.03511175705587439 0.03511175705587439 0.03511175705587439 0.0117657700929234 0.0117657700929234 
0.0117657700929234 0.0117657700929234 -0.01176577009292335 -0.01176577009292335 -0.01176577009292335 -0.01176577009292335 -0.03511175705587433 -0.03511175705587433 -0.03511175705587433 
-0.03511175705587433 -0.05790401063530719 -0.05790401063530719 -0.05790401063530719 -0.05790401063530719 -0.07978308337684187 -0.07978308337684187 -0.07978308337684187 -0.07978308337684187 
-0.1004039292334199 -0.1004039292334199 -0.1004039292334199 -0.1004039292334199 -0.119441345147587 -0.119441345147587 -0.119441345147587 -0.119441345147587 -0.1365950996979753 
-0.1365950996979753 -0.1365950996979753 -0.1365950996979753 -0.1515946679281695 -0.1515946679281695 -0.1515946679281695 -0.1515946679281695 -0.1642034976868713 -0.1642034976868713 
-0.1642034976868713 -0.1642034976868713 -0.174222740196636 -0.174222740196636 -0.174222740196636 -0.174222740196636 -0.1814943860178796 -0.1814943860178796 -0.1814943860178796 
-0.1814943860178796 -0.1859037569521304 -0.1859037569521304 -0.1859037569521304 -0.1859037569521304 -0.1873813145857247 -0.1873813145857247 -0.1873813145857247 -0.1873813145857247 
-0.1859037569521304 -0.1859037569521304 -0.1859037569521304 -0.1859037569521304 -0.1814943860178796 -0.1814943860178796 -0.1814943860178796 -0.1814943860178796 -0.174222740196636 
-0.174222740196636 -0.174222740196636 -0.174222740196636 -0.1642034976868711 -0.1642034976868711 -0.1642034976868711 -0.1642034976868711 -0.1515946679281696 -0.1515946679281696 
-0.1515946679281696 -0.1515946679281696 -0.1365950996979753 -0.1365950996979753 -0.1365950996979753 -0.1365950996979753 -0.1194413451475869 -0.1194413451475869 -0.1194413451475869 
-0.1194413451475869 -0.1004039292334199 -0.1004039292334199 -0.1004039292334199 -0.1004039292334199 -0.07978308337684176 -0.07978308337684176 -0.07978308337684176 -0.07978308337684176 
-0.05790401063530716 -0.05790401063530716 -0.05790401063530716 -0.05790401063530716 -0.03511175705587431 -0.03511175705587431 -0.03511175705587431 -0.03511175705587431 -0.01176577009292333 
-0.01176577009292333 -0.01176577009292333 -0.01176577009292333 0.01940333762018985 0.01940333762018985 0.01940333762018985 0.01940333762018985 0.0579040106353071 0.0579040106353071 
0.0579040106353071 0.0579040106353071 0.09549150281252625 0.09549150281252625 0.09549150281252625 0.09549150281252625 0.1315730369465332 0.1315730369465332 0.1315730369465332 
0.1315730369465332 0.1655795856899707 0.1655795856899707 0.1655795856899707 0.1655795856899707 0.1969748454546273 0.1969748454546273 0.1969748454546273 0.1969748454546273 
0.2252636942393954 0.2252636942393954 0.2252636942393954 0.2252636942393954 0.25 0.25 0.25 0.25 0.2707936564178434 
0.2707936564178434 0.2707936564178434 0.2707936564178434 0.2873167351096881 0.2873167351096881 0.2873167351096881 0.2873167351096881 0.299308657254155 0.299308657254155 
0.299308657254155 0.299308657254155 0.3065803030753986 0.3065803030753986 0.3065803030753986 0.3065803030753986 0.3090169943749474 0.3090169943749474 0.3090169943749474 
0.3090169943749474 0.3065803030753986 0.3065803030753986 0.3065803030753986 0.3065803030753986 0.2993086572541549 0.2993086572541549 0.2993086572541549 0.2993086572541549 
0.2873167351096881 0.2873167351096881 0.2873167351096881 0.2873167351096881 0.2707936564178433 0.2707936564178433 0.2707936564178433 0.2707936564178433 0.2499999999999999 
0.2499999999999999 0.2499999999999999 0.2499999999999999 0.2252636942393954 0.2252636942393954 0.2252636942393954 0.2252636942393954 0.1969748454546274 0.1969748454546274 
0.1969748454546274 0.1969748454546274 0.1655795856899707 0.1655795856899707 0.1655795856899707 0.1655795856899707 0.1315730369465332 0.1315730369465332 0.1315730369465332 
0.1315730369465332 0.0954915028125263 0.0954915028125263 0.0954915028125263 0.0954915028125263 0.05790401063530724 0.05790401063530724 0.05790401063530724 0.05790401063530724 
0.01940333762018992 0.01940333762018992 0.01940333762018992 0.01940333762018992 -0.01940333762018985 -0.01940333762018985 -0.01940333762018985 -0.01940333762018985 -0.05790401063530716 
-0.05790401063530716 -0.05790401063530716 -0.05790401063530716 -0.09549150281252637 -0.09549150281252637 -0.09549150281252637 -0.09549150281252637 -0.1315730369465331 -0.1315730369465331 
-0.1315730369465331 -0.1315730369465331 -0.1655795856899707 -0.1655795856899707 -0.1655795856899707 -0.1655795856899707 -0.1969748454546271 -0.1969748454546271 -0.1969748454546271 
-0.1969748454546271 -0.2252636942393952 -0.2252636942393952 -0.2252636942393952 -0.2252636942393952 -0.2500000000000001 -0.2500000000000001 -0.2500000000000001 -0.2500000000000001 
-0.2707936564178435 -0.2707936564178435 -0.2707936564178435 -0.2707936564178435 -0.2873167351096881 -0.2873167351096881 -0.2873167351096881 -0.2873167351096881 -0.2993086572541548 
-0.2993086572541548 -0.2993086572541548 -0.2993086572541548 -0.3065803030753985 -0.3065803030753985 -0.3065803030753985 -0.3065803030753985 -0.3090169943749473 -0.3090169943749473 
-0.3090169943749473 -0.3090169943749473 -0.3065803030753985 -0.3065803030753985 -0.3065803030753985 -0.3065803030753985 -0.2993086572541549 -0.2993086572541549 -0.2993086572541549 
-0.2993086572541549 -0.287316735109688 -0.287316735109688 -0.287316735109688 -0.287316735109688 -0.2707936564178434 -0.2707936564178434 -0.2707936564178434 -0.2707936564178434 
-0.2499999999999999 -0.2499999999999999 -0.2499999999999999 -0.2499999999999999 -0.2252636942393952 -0.2252636942393952 -0.2252636942393952 -0.2252636942393952 -0.1969748454546273 
-0.1969748454546273 -0.1969748454546273 -0.1969748454546273 -0.1655795856899708 -0.1655795856899708 -0.1655795856899708 -0.1655795856899708 -0.131573036946533 -0.131573036946533 
-0.131573036946533 -0.131573036946533 -0.09549150281252636 -0.09549150281252636 -0.09549150281252636 -0.09549150281252636 -0.05790401063530741 -0.05790401063530741 -0.05790401063530741 
-0.05790401063530741 -0.0194033376201901 -0.0194033376201901 -0.0194033376201901 -0.0194033376201901 0.02673490292219389 0.02673490292219389 0.02673490292219389 0.02673490292219389 
0.0797830833768418 0.0797830833768418 0.0797830833768418 0.0797830833768418 0.1315730369465331 0.1315730369465331 0.1315730369465331 0.1315730369465331 0.181288005125655 
0.181288005125655 0.181288005125655 0.181288005125655 0.2281439531677404 0.2281439531677404 0.2281439531677404 0.2281439531677404 0.271401934781779 0.271401934781779 
0.271401934781779 0.271401934781779 0.3103797457566518 0.3103797457566518 0.3103797457566518 0.3103797457566518 0.3444626827290692 0.3444626827290692 0.3444626827290692 
0.3444626827290692 0.3731132374228169 0.3731132374228169 0.3731132374228169 0.3731132374228169 0.3958795734753622 0.3958795734753622 0.3958795734753622 0.3958795734753622 
0.412402652167207 0.412402652167207 0.412402652167207 0.412402652167207 0.4224218946769718 0.4224218946769718 0.4224218946769718 0.4224218946769718 0.4257792915650724 
0.4257792915650724 0.4257792915650724 0.4257792915650724 0.4224218946769718 0.4224218946769718 0.4224218946769718 0.4224218946769718 0.4124026521672069 0.4124026521672069 
0.4124026521672069 0.4124026521672069 0.3958795734753622 0.3958795734753622 0.3958795734753622 0.3958795734753622 0.3731132374228167 0.3731132374228167 0.3731132374228167 
0.3731132374228167 0.3444626827290692 0.3444626827290692 0.3444626827290692 0.3444626827290692 0.3103797457566518 0.3103797457566518 0.3103797457566518 0.3103797457566518 
0.2714019347817792 0.2714019347817792 0.2714019347817792 0.2714019347817792 0.2281439531677405 0.2281439531677405 0.2281439531677405 0.2281439531677405 0.1812880051256552 
0.1812880051256552 0.1812880051256552 0.1812880051256552 0.1315730369465334 0.1315730369465334 0.1315730369465334 0.1315730369465334 0.07978308337684198 0.07978308337684198 
0.07978308337684198 0.07978308337684198 0.02673490292219399 0.02673490292219399 0.02673490292219399 0.02673490292219399 -0.02673490292219389 -0.02673490292219389 -0.02673490292219389 
-0.02673490292219389 -0.07978308337684188 -0.07978308337684188 -0.07978308337684188 -0.07978308337684188 -0.1315730369465332 -0.1315730369465332 -0.1315730369465332 -0.1315730369465332 
-0.1812880051256551 -0.1812880051256551 -0.1812880051256551 -0.1812880051256551 -0.2281439531677406 -0.2281439531677406 -0.2281439531677406 -0.2281439531677406 -0.2714019347817791 
-0.2714019347817791 -0.2714019347817791 -0.2714019347817791 -0.3103797457566518 -0.3103797457566518 -0.3103797457566518 -0.3103797457566518 -0.3444626827290695 -0.3444626827290695 
-0.3444626827290695 -0.3444626827290695 -0.3731132374228171 -0.3731132374228171 -0.3731132374228171 -0.3731132374228171 -0.3958795734753623 -0.3958795734753623 -0.3958795734753623 
-0.3958795734753623 -0.4124026521672071 -0.4124026521672071 -0.4124026521672071 -0.4124026521672071 -0.4224218946769718 -0.4224218946769718 -0.4224218946769718 -0.4224218946769718 
-0.4257792915650725 -0.4257792915650725 -0.4257792915650725 -0.4257792915650725 -0.4224218946769719 -0.4224218946769719 -0.4224218946769719 -0.4224218946769719 -0.412402652167207 
-0.412402652167207 -0.412402652167207 -0.412402652167207 -0.3958795734753622 -0.3958795734753622 -0.3958795734753622 -0.3958795734753622 -0.3731132374228168 -0.3731132374228168 
-0.3731132374228168 -0.3731132374228168 -0.3444626827290694 -0.3444626827290694 -0.3444626827290694 -0.3444626827290694 -0.3103797457566519 -0.3103797457566519 -0.3103797457566519 
-0.3103797457566519 -0.2714019347817795 -0.2714019347817795 -0.2714019347817795 -0.2714019347817795 -0.2281439531677408 -0.2281439531677408 -0.2281439531677408 -0.2281439531677408 
-0.1812880051256553 -0.1812880051256553 -0.1812880051256553 -0.1812880051256553 -0.1315730369465332 -0.1315730369465332 -0.1315730369465332 -0.1315730369465332 -0.07978308337684187 
-0.07978308337684187 -0.07978308337684187 -0.07978308337684187 -0.02673490292219386 -0.02673490292219386 -0.02673490292219386 -0.02673490292219386 0.03364484283445809 0.03364484283445809 
0.03364484283445809 0.03364484283445809 0.1004039292334199 0.1004039292334199 0.1004039292334199 0.1004039292334199 0.1655795856899706 0.1655795856899706 0.1655795856899706 
0.1655795856899706 0.2281439531677406 0.2281439531677406 0.2281439531677406 0.2281439531677406 0.2871103542174636 0.2871103542174636 0.2871103542174636 0.2871103542174636 
0.341548853469765 0.341548853469765 0.341548853469765 0.341548853469765 0.3906009232714531 0.3906009232714531 0.3906009232714531 0.3906009232714531 0.4334929831794689 
0.4334929831794689 0.4334929831794689 0.4334929831794689 0.4695485997865884 0.4695485997865884 0.4695485997865884 0.4695485997865884 0.4981991544803358 0.4981991544803358 
0.4981991544803358 0.4981991544803358 0.5189928108981793 0.5189928108981793 0.5189928108981793 0.5189928108981793 0.531601640656881 0.531601640656881 0.531601640656881 
0.531601640656881 0.5358267949789964 0.5358267949789964 0.5358267949789964 0.5358267949789964 0.531601640656881 0.531601640656881 0.531601640656881 0.531601640656881 
0.5189928108981793 0.5189928108981793 0.5189928108981793 0.5189928108981793 0.4981991544803358 0.4981991544803358 0.4981991544803358 0.4981991544803358 0.4695485997865882 
0.4695485997865882 0.4695485997865882 0.4695485997865882 0.4334929831794689 0.4334929831794689 0.4334929831794689 0.4334929831794689 0.3906009232714531 0.3906009232714531 
0.3906009232714531 0.3906009232714531 0.3415488534697652 0.3415488534697652 0.3415488534697652 0.3415488534697652 0.2871103542174637 0.2871103542174637 0.2871103542174637 
0.2871103542174637 0.2281439531677405 0.2281439531677405 0.2281439531677405 0.2281439531677405 0.1655795856899707 0.1655795856899707 0.1655795856899707 0.1655795856899707 
0.1004039292334202 0.1004039292334202 0.1004039292334202 0.1004039292334202 0.03364484283445818 0.03364484283445818 0.03364484283445818 0.03364484283445818 -0.03364484283445806 
-0.03364484283445806 -0.03364484283445806 -0.03364484283445806 -0.10040392923342 -0.10040392923342 -0.10040392923342 -0.10040392923342 -0.1655795856899708 -0.1655795856899708 
-0.1655795856899708 -0.1655795856899708 -0.2281439531677406 -0.2281439531677406 -0.2281439531677406 -0.2281439531677406 -0.2871103542174637 -0.2871103542174637 -0.2871103542174637 
-0.2871103542174637 -0.3415488534697653 -0.3415488534697653 -0.3415488534697653 -0.3415488534697653 -0.3906009232714531 -0.3906009232714531 -0.3906009232714531 -0.3906009232714531 
-0.4334929831794689 -0.4334929831794689 -0.4334929831794689 -0.4334929831794689 -0.4695485997865886 -0.4695485997865886 -0.4695485997865886 -0.4695485997865886 -0.498199154480336 
-0.498199154480336 -0.498199154480336 -0.498199154480336 -0.5189928108981796 -0.5189928108981796 -0.5189928108981796 -0.5189928108981796 -0.5316016406568811 -0.5316016406568811 
-0.5316016406568811 -0.5316016406568811 -0.5358267949789967 -0.5358267949789967 -0.5358267949789967 -0.5358267949789967 -0.5316016406568812 -0.5316016406568812 -0.5316016406568812 
-0.5316016406568812 -0.5189928108981795 -0.5189928108981795 -0.5189928108981795 -0.5189928108981795 -0.498199154480336 -0.498199154480336 -0.498199154480336 -0.498199154480336 
-0.4695485997865884 -0.4695485997865884 -0.4695485997865884 -0.4695485997865884 -0.4334929831794691 -0.4334929831794691 -0.4334929831794691 -0.4334929831794691 -0.3906009232714533 
-0.3906009232714533 -0.3906009232714533 -0.3906009232714533 -0.3415488534697652 -0.3415488534697652 -0.3415488534697652 -0.3415488534697652 -0.2871103542174636 -0.2871103542174636 
-0.2871103542174636 -0.2871103542174636 -0.2281439531677404 -0.2281439531677404 -0.2281439531677404 -0.2281439531677404 -0.1655795856899709 -0.1655795856899709 -0.1655795856899709 
-0.1655795856899709 -0.10040392923342 -0.10040392923342 -0.10040392923342 -0.10040392923342 -0.03364484283445802 -0.03364484283445802 -0.03364484283445802 -0.03364484283445802 
0.04002418347676794 0.04002418347676794 0.04002418347676794 0.04002418347676794 0.119441345147587 0.119441345147587 0.119441345147587 0.119441345147587 0.1969748454546273 
0.1969748454546273 0.1969748454546273 0.1969748454546273 0.2714019347817793 0.2714019347817793 0.2714019347817793 0.2714019347817793 0.3415488534697652 0.3415488534697652 
0.3415488534697652 0.3415488534697652 0.4063093427071376 0.4063093427071376 0.4063093427071376 0.4063093427071376 0.4646620908925822 0.4646620908925822 0.4646620908925822 
0.4646620908925822 0.5156868403289722 0.5156868403289722 0.5156868403289722 0.5156868403289722 0.558578900236988 0.558578900236988 0.558578900236988 0.558578900236988 
0.5926618372094054 0.5926618372094054 0.5926618372094054 0.5926618372094054 0.6173981429700099 0.6173981429700099 0.6173981429700099 0.6173981429700099 0.6323977112002039 
0.6323977112002039 0.6323977112002039 0.6323977112002039 0.6374239897486896 0.6374239897486896 0.6374239897486896 0.6374239897486896 0.6323977112002039 0.6323977112002039 
0.6323977112002039 0.6323977112002039 0.6173981429700099 0.6173981429700099 0.6173981429700099 0.6173981429700099 0.5926618372094054 0.5926618372094054 0.5926618372094054 
0.5926618372094054 0.5585789002369879 0.5585789002369879 0.5585789002369879 0.5585789002369879 0.5156868403289722 0.5156868403289722 0.5156868403289722 0.5156868403289722 
0.4646620908925821 0.4646620908925821 0.4646620908925821 0.4646620908925821 0.4063093427071378 0.4063093427071378 0.4063093427071378 0.4063093427071378 0.3415488534697652 
0.3415488534697652 0.3415488534697652 0.3415488534697652 0.2714019347817794 0.2714019347817794 0.2714019347817794 0.2714019347817794 0.1969748454546272 0.1969748454546272 
0.1969748454546272 0.1969748454546272 0.1194413451475872 0.1194413451475872 0.1194413451475872 0.1194413451475872 0.04002418347676807 0.04002418347676807 0.04002418347676807 
0.04002418347676807 -0.04002418347676793 -0.04002418347676793 -0.04002418347676793 -0.04002418347676793 -0.119441345147587 -0.119441345147587 -0.119441345147587 -0.119441345147587 
-0.1969748454546276 -0.1969748454546276 -0.1969748454546276 -0.1969748454546276 -0.271401934781779 -0.271401934781779 -0.271401934781779 -0.271401934781779 -0.3415488534697653 
-0.3415488534697653 -0.3415488534697653 -0.3415488534697653 -0.4063093427071378 -0.4063093427071378 -0.4063093427071378 -0.4063093427071378 -0.4646620908925824 -0.4646620908925824 
-0.4646620908925824 -0.4646620908925824 -0.5156868403289722 -0.5156868403289722 -0.5156868403289722 -0.5156868403289722 -0.558578900236988 -0.558578900236988 -0.558578900236988 
-0.558578900236988 -0.5926618372094055 -0.5926618372094055 -0.5926618372094055 -0.5926618372094055 -0.6173981429700098 -0.6173981429700098 -0.6173981429700098 -0.6173981429700098 
-0.6323977112002039 -0.6323977112002039 -0.6323977112002039 -0.6323977112002039 -0.6374239897486896 -0.6374239897486896 -0.6374239897486896 -0.6374239897486896 -0.632397711200204 
-0.632397711200204 -0.632397711200204 -0.632397711200204 -0.6173981429700099 -0.6173981429700099 -0.6173981429700099 -0.6173981429700099 -0.5926618372094054 -0.5926618372094054 
-0.5926618372094054 -0.5926618372094054 -0.5585789002369878 -0.5585789002369878 -0.5585789002369878 -0.5585789002369878 -0.5156868403289723 -0.5156868403289723 -0.5156868403289723 
-0.5156868403289723 -0.4646620908925822 -0.4646620908925822 -0.4646620908925822 -0.4646620908925822 -0.4063093427071376 -0.4063093427071376 -0.4063093427071376 -0.4063093427071376 
-0.341548853469765 -0.341548853469765 -0.341548853469765 -0.341548853469765 -0.2714019347817789 -0.2714019347817789 -0.2714019347817789 -0.2714019347817789 -0.1969748454546275 
-0.1969748454546275 -0.1969748454546275 -0.1969748454546275 -0.119441345147587 -0.119441345147587 -0.119441345147587 -0.119441345147587 -0.04002418347676787 -0.04002418347676787 
-0.04002418347676787 -0.04002418347676787 0.0457723188363609 0.0457723188363609 0.0457723188363609 0.0457723188363609 0.1365950996979754 0.1365950996979754 0.1365950996979754 
0.1365950996979754 0.2252636942393955 0.2252636942393955 0.2252636942393955 0.2252636942393955 0.3103797457566519 0.3103797457566519 0.3103797457566519 0.3103797457566519 
0.3906009232714533 0.3906009232714533 0.3906009232714533 0.3906009232714533 0.4646620908925822 0.4646620908925822 0.4646620908925822 0.4646620908925822 0.5313952597646567 
0.5313952597646567 0.5313952597646567 0.5313952597646567 0.5897480079501013 0.5897480079501013 0.5897480079501013 0.5897480079501013 0.6388000777517894 0.6388000777517894 
0.6388000777517894 0.6388000777517894 0.677777888726662 0.677777888726662 0.677777888726662 0.677777888726662 0.7060667375114301 0.7060667375114301 0.7060667375114301 
0.7060667375114301 0.7232204920618186 0.7232204920618186 0.7232204920618186 0.7232204920618186 0.7289686274214116 0.7289686274214116 0.7289686274214116 0.7289686274214116 
0.7232204920618186 0.7232204920618186 0.7232204920618186 0.7232204920618186 0.7060667375114301 0.7060667375114301 0.7060667375114301 0.7060667375114301 0.6777778887266621 
0.6777778887266621 0.6777778887266621 0.6777778887266621 0.6388000777517894 0.6388000777517894 0.6388000777517894 0.6388000777517894 0.5897480079501013 0.5897480079501013 
0.5897480079501013 0.5897480079501013 0.5313952597646566 0.5313952597646566 0.5313952597646566 0.5313952597646566 0.4646620908925824 0.4646620908925824 0.4646620908925824 
0.4646620908925824 0.3906009232714533 0.3906009232714533 0.3906009232714533 0.3906009232714533 0.3103797457566522 0.3103797457566522 0.3103797457566522 0.3103797457566522 
0.2252636942393959 0.2252636942393959 0.2252636942393959 0.2252636942393959 0.1365950996979754 0.1365950996979754 0.1365950996979754 0.1365950996979754 0.04577231883636106 
0.04577231883636106 0.04577231883636106 0.04577231883636106 -0.04577231883636089 -0.04577231883636089 -0.04577231883636089 -0.04577231883636089 -0.1365950996979755 -0.1365950996979755 
-0.1365950996979755 -0.1365950996979755 -0.2252636942393957 -0.2252636942393957 -0.2252636942393957 -0.2252636942393957 -0.310379745756652 -0.310379745756652 -0.310379745756652 
-0.310379745756652 -0.3906009232714533 -0.3906009232714533 -0.3906009232714533 -0.3906009232714533 -0.4646620908925824 -0.4646620908925824 -0.4646620908925824 -0.4646620908925824 
-0.5313952597646565 -0.5313952597646565 -0.5313952597646565 -0.5313952597646565 -0.5897480079501007 -0.5897480079501007 -0.5897480079501007 -0.5897480079501007 -0.6388000777517893 
-0.6388000777517893 -0.6388000777517893 -0.6388000777517893 -0.6777778887266621 -0.6777778887266621 -0.6777778887266621 -0.6777778887266621 -0.7060667375114303 -0.7060667375114303 
-0.7060667375114303 -0.7060667375114303 -0.7232204920618186 -0.7232204920618186 -0.7232204920618186 -0.7232204920618186 -0.7289686274214116 -0.7289686274214116 -0.7289686274214116 
-0.7289686274214116 -0.7232204920618186 -0.7232204920618186 -0.7232204920618186 -0.7232204920618186 -0.7060667375114301 -0.7060667375114301 -0.7060667375114301 -0.7060667375114301 
-0.6777778887266619 -0.6777778887266619 -0.6777778887266619 -0.6777778887266619 -0.6388000777517892 -0.6388000777517892 -0.6388000777517892 -0.6388000777517892 -0.5897480079501014 
-0.5897480079501014 -0.5897480079501014 -0.5897480079501014 -0.5313952597646572 -0.5313952597646572 -0.5313952597646572 -0.5313952597646572 -0.4646620908925822 -0.4646620908925822 
-0.4646620908925822 -0.4646620908925822 -0.3906009232714531 -0.3906009232714531 -0.3906009232714531 -0.3906009232714531 -0.3103797457566517 -0.3103797457566517 -0.3103797457566517 
-0.3103797457566517 -0.2252636942393957 -0.2252636942393957 -0.2252636942393957 -0.2252636942393957 -0.1365950996979755 -0.1365950996979755 -0.1365950996979755 -0.1365950996979755 
-0.04577231883636083 -0.04577231883636083 -0.04577231883636083 -0.04577231883636083 0.05079859738484654 0.05079859738484654 0.05079859738484654 0.05079859738484654 0.1515946679281694 
0.1515946679281694 0.1515946679281694 0.1515946679281694 0.2499999999999999 0.2499999999999999 0.2499999999999999 0.2499999999999999 0.3444626827290694 0.3444626827290694 
0.3444626827290694 0.3444626827290694 0.433492983179469 0.433492983179469 0.433492983179469 0.433492983179469 0.5156868403289722 0.5156868403289722 0.5156868403289722 
0.5156868403289722 0.5897480079501013 0.5897480079501013 0.5897480079501013 0.5897480079501013 0.6545084971874738 0.6545084971874738 0.6545084971874738 0.6545084971874738 
0.7089469964397753 0.7089469964397753 0.7089469964397753 0.7089469964397753 0.7522049780538138 0.7522049780538138 0.7522049780538138 0.7522049780538138 0.7836002378184705 
0.7836002378184705 0.7836002378184705 0.7836002378184705 0.8026376537326375 0.8026376537326375 0.8026376537326375 0.8026376537326375 0.8090169943749475 0.8090169943749475 
0.8090169943749475 0.8090169943749475 0.8026376537326375 0.8026376537326375 0.8026376537326375 0.8026376537326375 0.7836002378184705 0.7836002378184705 0.7836002378184705 
0.7836002378184705 0.7522049780538139 0.7522049780538139 0.7522049780538139 0.7522049780538139 0.7089469964397752 0.7089469964397752 0.7089469964397752 0.7089469964397752 
0.6545084971874737 0.6545084971874737 0.6545084971874737 0.6545084971874737 0.5897480079501012 0.5897480079501012 0.5897480079501012 0.5897480079501012 0.5156868403289724 
0.5156868403289724 0.5156868403289724 0.5156868403289724 0.4334929831794693 0.4334929831794693 0.4334929831794693 0.4334929831794693 0.3444626827290697 0.3444626827290697 
0.3444626827290697 0.3444626827290697 0.2500000000000001 0.2500000000000001 0.2500000000000001 0.2500000000000001 0.1515946679281694 0.1515946679281694 0.1515946679281694 
0.1515946679281694 0.05079859738484671 0.05079859738484671 0.05079859738484671 0.05079859738484671 -0.05079859738484652 -0.05079859738484652 -0.05079859738484652 -0.05079859738484652 