Title = Result/Post/Linear_Advection_2D/FVM/MLP_u1_Least_Square/Sine_Wave_2D/Quad50/
FileType = Solution
Variables = q
Zone T = Result/Post/Linear_Advection_2D/FVM/MLP_u1_Least_Square/Sine_Wave_2D/Quad50/
ZoneType = FETriangle
Nodes = 10000
Elements = 5000
DataPacking = Block
StrandID = 9
SolutionTime = 0.8
-0.6499453712045511 -0.6499453712045511 -0.6499453712045511 -0.6499453712045511 -0.6570104825089557 -0.6570104825089557 -0.6570104825089557 -0.6570104825089557 -0.6601226109501673 -0.6601226109501673 
-0.6601226109501673 -0.6601226109501673 -0.6547395975494943 -0.6547395975494943 -0.6547395975494943 -0.6547395975494943 -0.6396016527554823 -0.6396016527554823 -0.6396016527554823 
-0.6396016527554823 -0.6145506550837978 -0.6145506550837978 -0.6145506550837978 -0.6145506550837978 -0.579835826060881 -0.579835826060881 -0.579835826060881 -0.579835826060881 
-0.5359562232053612 -0.5359562232053612 -0.5359562232053612 -0.5359562232053612 -0.4835992887393659 -0.4835992887393659 -0.4835992887393659 -0.4835992887393659 -0.4236036308123776 
-0.4236036308123776 -0.4236036308123776 -0.4236036308123776 -0.3569277294681317 -0.3569277294681317 -0.3569277294681317 -0.3569277294681317 -0.2846276790583689 -0.2846276790583689 
-0.2846276790583689 -0.2846276790583689 -0.2078412604556773 -0.2078412604556773 -0.2078412604556773 -0.2078412604556773 -0.1277749859896459 -0.1277749859896459 -0.1277749859896459 
-0.1277749859896459 -0.04568990640211429 -0.04568990640211429 -0.04568990640211429 -0.04568990640211429 0.03711678211284039 0.03711678211284039 0.03711678211284039 0.03711678211284039 
0.1193345285935488 0.1193345285935488 0.1193345285935488 0.1193345285935488 0.1996639102298639 0.1996639102298639 0.1996639102298639 0.1996639102298639 0.2768391950557716 
0.2768391950557716 0.2768391950557716 0.2768391950557716 0.349647227274891 0.349647227274891 0.349647227274891 0.349647227274891 0.4169436341731046 0.4169436341731046 
0.4169436341731046 0.4169436341731046 0.4776685805534907 0.4776685805534907 0.4776685805534907 0.4776685805534907 0.5308633646069287 0.5308633646069287 0.5308633646069287 
0.5308633646069287 0.5756871813224693 0.5756871813224693 0.5756871813224693 0.5756871813224693 0.6114326067147167 0.6114326067147167 0.6114326067147167 0.6114326067147167 
0.6375371830147532 0.6375371830147532 0.6375371830147532 0.6375371830147532 0.6535871159359344 0.6535871159359344 0.6535871159359344 0.6535871159359344 0.659307384172131 
0.659307384172131 0.659307384172131 0.659307384172131 0.6546570740325525 0.6546570740325525 0.6546570740325525 0.6546570740325525 0.6396641955792588 0.6396641955792588 
0.6396641955792588 0.6396641955792588 0.6145523417435221 0.6145523417435221 0.6145523417435221 0.6145523417435221 0.579735648626869 0.579735648626869 0.579735648626869 
0.579735648626869 0.5358439500689365 0.5358439500689365 0.5358439500689365 0.5358439500689365 0.4837372282456412 0.4837372282456412 0.4837372282456412 0.4837372282456412 
0.4244841535972026 0.4244841535972026 0.4244841535972026 0.4244841535972026 0.359268758588723 0.359268758588723 0.359268758588723 0.359268758588723 0.2892371581319999 
0.2892371581319999 0.2892371581319999 0.2892371581319999 0.2153382373701677 0.2153382373701677 0.2153382373701677 0.2153382373701677 0.1382447741659533 0.1382447741659533 
0.1382447741659533 0.1382447741659533 0.05842487738429113 0.05842487738429113 0.05842487738429113 0.05842487738429113 -0.02363475362604541 -0.02363475362604541 -0.02363475362604541 
-0.02363475362604541 -0.1071394568337983 -0.1071394568337983 -0.1071394568337983 -0.1071394568337983 -0.1907754324598789 -0.1907754324598789 -0.1907754324598789 -0.1907754324598789 
-0.2726877630251423 -0.2726877630251423 -0.2726877630251423 -0.2726877630251423 -0.3507128809242208 -0.3507128809242208 -0.3507128809242208 -0.3507128809242208 -0.4226757651432242 
-0.4226757651432242 -0.4226757651432242 -0.4226757651432242 -0.4868597995713805 -0.4868597995713805 -0.4868597995713805 -0.4868597995713805 -0.5422323325259929 -0.5422323325259929 
-0.5422323325259929 -0.5422323325259929 -0.5858743971129128 -0.5858743971129128 -0.5858743971129128 -0.5858743971129128 -0.6344251155289582 -0.6344251155289582 -0.6344251155289582 
-0.6344251155289582 -0.700875078217795 -0.700875078217795 -0.700875078217795 -0.700875078217795 -0.7081883372300056 -0.7081883372300056 -0.7081883372300056 -0.7081883372300056 
-0.7116388202656641 -0.7116388202656641 -0.7116388202656641 -0.7116388202656641 -0.7059041000708033 -0.7059041000708033 -0.7059041000708033 -0.7059041000708033 -0.689634992585026 
-0.689634992585026 -0.689634992585026 -0.689634992585026 -0.6626482231559677 -0.6626482231559677 -0.6626482231559677 -0.6626482231559677 -0.6252243854857752 -0.6252243854857752 
-0.6252243854857752 -0.6252243854857752 -0.577910921873568 -0.577910921873568 -0.577910921873568 -0.577910921873568 -0.5214557861128662 -0.5214557861128662 -0.5214557861128662 
-0.5214557861128662 -0.4567660727264766 -0.4567660727264766 -0.4567660727264766 -0.4567660727264766 -0.3848757754401827 -0.3848757754401827 -0.3848757754401827 -0.3848757754401827 
-0.3069228359167848 -0.3069228359167848 -0.3069228359167848 -0.3069228359167848 -0.2241329027419245 -0.2241329027419245 -0.2241329027419245 -0.2241329027419245 -0.1378058812319932 
-0.1378058812319932 -0.1378058812319932 -0.1378058812319932 -0.04930079970391055 -0.04930079970391055 -0.04930079970391055 -0.04930079970391055 0.03998397706618963 0.03998397706618963 
0.03998397706618963 0.03998397706618963 0.1286353099765175 0.1286353099765175 0.1286353099765175 0.1286353099765175 0.2152517343012837 0.2152517343012837 0.2152517343012837 
0.2152517343012837 0.2984679449747096 0.2984679449747096 0.2984679449747096 0.2984679449747096 0.3769753780111458 0.3769753780111458 0.3769753780111458 0.3769753780111458 
0.4495398557770273 0.4495398557770273 0.4495398557770273 0.4495398557770273 0.5150186317175722 0.5150186317175722 0.5150186317175722 0.5150186317175722 0.5723782404989219 
0.5723782404989219 0.5723782404989219 0.5723782404989219 0.6207124177423434 0.6207124177423434 0.6207124177423434 0.6207124177423434 0.6592582555956976 0.6592582555956976 
0.6592582555956976 0.6592582555956976 0.6874076426369375 0.6874076426369375 0.6874076426369375 0.6874076426369375 0.7047130484394982 0.7047130484394982 0.7047130484394982 
0.7047130484394982 0.7109001299209449 0.7109001299209449 0.7109001299209449 0.7109001299209449 0.7058795022450807 0.7058795022450807 0.7058795022450807 0.7058795022450807 
0.6897166611545669 0.6897166611545669 0.6897166611545669 0.6897166611545669 0.6626453743349893 0.6626453743349893 0.6626453743349893 0.6626453743349893 0.6251093611720479 
0.6251093611720479 0.6251093611720479 0.6251093611720479 0.5777850788451027 0.5777850788451027 0.5777850788451027 0.5777850788451027 0.5215994202032574 0.5215994202032574 
0.5215994202032574 0.5215994202032574 0.4577050795736939 0.4577050795736939 0.4577050795736939 0.4577050795736939 0.3873813152144178 0.3873813152144178 0.3873813152144178 
0.3873813152144178 0.3118684236238075 0.3118684236238075 0.3118684236238075 0.3118684236238075 0.2321941289787273 0.2321941289787273 0.2321941289787273 0.2321941289787273 
0.149085734613594 0.149085734613594 0.149085734613594 0.149085734613594 0.06304492267439815 0.06304492267439815 0.06304492267439815 0.06304492267439815 -0.02541136045473533 
-0.02541136045473533 -0.02541136045473533 -0.02541136045473533 -0.1154357847053693 -0.1154357847053693 -0.1154357847053693 -0.1154357847053693 -0.2056184739275508 -0.2056184739275508 
-0.2056184739275508 -0.2056184739275508 -0.2939590801889296 -0.2939590801889296 -0.2939590801889296 -0.2939590801889296 -0.3781188850624928 -0.3781188850624928 -0.3781188850624928 
-0.3781188850624928 -0.455739584370992 -0.455739584370992 -0.455739584370992 -0.455739584370992 -0.5249634459163894 -0.5249634459163894 -0.5249634459163894 -0.5249634459163894 
-0.584694492803977 -0.584694492803977 -0.584694492803977 -0.584694492803977 -0.6315976413697273 -0.6315976413697273 -0.6315976413697273 -0.6315976413697273 -0.6843512452272501 
-0.6843512452272501 -0.6843512452272501 -0.6843512452272501 -0.7685938266605692 -0.7685938266605692 -0.7685938266605692 -0.7685938266605692 -0.7765052548171267 -0.7765052548171267 
-0.7765052548171267 -0.7765052548171267 -0.7802039436122775 -0.7802039436122775 -0.7802039436122775 -0.7802039436122775 -0.7739156941733762 -0.7739156941733762 -0.7739156941733762 
-0.7739156941733762 -0.7561089641393721 -0.7561089641393721 -0.7561089641393721 -0.7561089641393721 -0.7265546502267317 -0.7265546502267317 -0.7265546502267317 -0.7265546502267317 
-0.6855442426790186 -0.6855442426790186 -0.6855442426790186 -0.6855442426790186 -0.6336766422122553 -0.6336766422122553 -0.6336766422122553 -0.6336766422122553 -0.5717772405666114 
-0.5717772405666114 -0.5717772405666114 -0.5717772405666114 -0.5008463466503826 -0.5008463466503826 -0.5008463466503826 -0.5008463466503826 -0.422021478339225 -0.422021478339225 
-0.422021478339225 -0.422021478339225 -0.3365516017274417 -0.3365516017274417 -0.3365516017274417 -0.3365516017274417 -0.2457801205591797 -0.2457801205591797 -0.2457801205591797 
-0.2457801205591797 -0.151131114177311 -0.151131114177311 -0.151131114177311 -0.151131114177311 -0.05409345951026096 -0.05409345951026096 -0.05409345951026096 -0.05409345951026096 
0.04380045860489877 0.04380045860489877 0.04380045860489877 0.04380045860489877 0.1410014991965223 0.1410014991965223 0.1410014991965223 0.1410014991965223 0.2359727855558728 
0.2359727855558728 0.2359727855558728 0.2359727855558728 0.3272167726852683 0.3272167726852683 0.3272167726852683 0.3272167726852683 0.4132981412806364 0.4132981412806364 
0.4132981412806364 0.4132981412806364 0.4928634121649117 0.4928634121649117 0.4928634121649117 0.4928634121649117 0.564659714405367 0.564659714405367 0.564659714405367 
0.564659714405367 0.6275541955675839 0.6275541955675839 0.6275541955675839 0.6275541955675839 0.6805533090046281 0.6805533090046281 0.6805533090046281 0.6805533090046281 
0.7228199787688561 0.7228199787688561 0.7228199787688561 0.7228199787688561 0.7536866890613689 0.7536866890613689 0.7536866890613689 0.7536866890613689 0.7726650114513524 
0.7726650114513524 0.7726650114513524 0.7726650114513524 0.77945651558992 0.77945651558992 0.77945651558992 0.77945651558992 0.7739560432120569 0.7739560432120569 
0.7739560432120569 0.7739560432120569 0.7562366135166487 0.7562366135166487 0.7562366135166487 0.7562366135166487 0.7265606806862737 0.7265606806862737 0.7265606806862737 
0.7265606806862737 0.6854116687807303 0.6854116687807303 0.6854116687807303 0.6854116687807303 0.6335281715770794 0.6335281715770794 0.6335281715770794 0.6335281715770794 
0.5719253371088733 0.5719253371088733 0.5719253371088733 0.5719253371088733 0.5018666203442549 0.5018666203442549 0.5018666203442549 0.5018666203442549 0.4247560080984458 
0.4247560080984458 0.4247560080984458 0.4247560080984458 0.3419565937819441 0.3419565937819441 0.3419565937819441 0.3419565937819441 0.2545994032597701 0.2545994032597701 
0.2545994032597701 0.2545994032597701 0.1634849294659328 0.1634849294659328 0.1634849294659328 0.1634849294659328 0.06916285670136814 0.06916285670136814 0.06916285670136814 
0.06916285670136814 -0.02780467240843499 -0.02780467240843499 -0.02780467240843499 -0.02780467240843499 -0.1264959943190881 -0.1264959943190881 -0.1264959943190881 -0.1264959943190881 
-0.2253719195670102 -0.2253719195670102 -0.2253719195670102 -0.2253719195670102 -0.322241592911418 -0.322241592911418 -0.322241592911418 -0.322241592911418 -0.4145375425830027 
-0.4145375425830027 -0.4145375425830027 -0.4145375425830027 -0.4996665099631312 -0.4996665099631312 -0.4996665099631312 -0.4996665099631312 -0.5755848117266502 -0.5755848117266502 
-0.5755848117266502 -0.5755848117266502 -0.6410799157266527 -0.6410799157266527 -0.6410799157266527 -0.6410799157266527 -0.6925378040938139 -0.6925378040938139 -0.6925378040938139 
-0.6925378040938139 -0.7502548134639697 -0.7502548134639697 -0.7502548134639697 -0.7502548134639697 -0.8307690202815348 -0.8307690202815348 -0.8307690202815348 -0.8307690202815348 
-0.8393427240010241 -0.8393427240010241 -0.8393427240010241 -0.8393427240010241 -0.8433047633317434 -0.8433047633317434 -0.8433047633317434 -0.8433047633317434 -0.8364696638401196 
-0.8364696638401196 -0.8364696638401196 -0.8364696638401196 -0.8172132360730707 -0.8172132360730707 -0.8172132360730707 -0.8172132360730707 -0.7852824624652237 -0.7852824624652237 
-0.7852824624652237 -0.7852824624652237 -0.7409775274763796 -0.7409775274763796 -0.7409775274763796 -0.7409775274763796 -0.6849344465519154 -0.6849344465519154 -0.6849344465519154 
-0.6849344465519154 -0.6180407949937252 -0.6180407949937252 -0.6180407949937252 -0.6180407949937252 -0.5413786279350515 -0.5413786279350515 -0.5413786279350515 -0.5413786279350515 
-0.456180458657235 -0.456180458657235 -0.456180458657235 -0.456180458657235 -0.3637989446029258 -0.3637989446029258 -0.3637989446029258 -0.3637989446029258 -0.265687553219118 
-0.265687553219118 -0.265687553219118 -0.265687553219118 -0.1633857457644758 -0.1633857457644758 -0.1633857457644758 -0.1633857457644758 -0.05850233100093898 -0.05850233100093898 
-0.05850233100093898 -0.05850233100093898 0.04730701271806736 0.04730701271806736 0.04730701271806736 0.04730701271806736 0.1523682657136579 0.1523682657136579 0.1523682657136579 
0.1523682657136579 0.25502028300177 0.25502028300177 0.25502028300177 0.25502028300177 0.3536441468071334 0.3536441468071334 0.3536441468071334 0.3536441468071334 
0.4466881597265041 0.4466881597265041 0.4466881597265041 0.4466881597265041 0.5326892623602466 0.5326892623602466 0.5326892623602466 0.5326892623602466 0.6102933709933209 
0.6102933709933209 0.6102933709933209 0.6102933709933209 0.6782761533337274 0.6782761533337274 0.6782761533337274 0.6782761533337274 0.7355636234038967 0.7355636234038967 
0.7355636234038967 0.7355636234038967 0.7812506518889278 0.7812506518889278 0.7812506518889278 0.7812506518889278 0.8146155611190764 0.8146155611190764 0.8146155611190764 
0.8146155611190764 0.835131641306295 0.835131641306295 0.835131641306295 0.835131641306295 0.8424772311339994 0.8424772311339994 0.8424772311339994 0.8424772311339994 
0.8365355296767026 0.8365355296767026 0.8365355296767026 0.8365355296767026 0.817387107817694 0.817387107817694 0.817387107817694 0.817387107817694 0.7853179352479314 
0.7853179352479314 0.7853179352479314 0.7853179352479314 0.7408489357852857 0.7408489357852857 0.7408489357852857 0.7408489357852857 0.6847763692168104 0.6847763692168104 
0.6847763692168104 0.6847763692168104 0.6181956159704447 0.6181956159704447 0.6181956159704447 0.6181956159704447 0.5424714518551967 0.5424714518551967 0.5424714518551967 
0.5424714518551967 0.4591218447643807 0.4591218447643807 0.4591218447643807 0.4591218447643807 0.3696222027024019 0.3696222027024019 0.3696222027024019 0.3696222027024019 
0.2751985021924441 0.2751985021924441 0.2751985021924441 0.2751985021924441 0.176719326185042 0.176719326185042 0.176719326185042 0.176719326185042 0.07478003130400623 
0.07478003130400623 0.07478003130400623 0.07478003130400623 -0.03001400760247712 -0.03001400760247712 -0.03001400760247712 -0.03001400760247712 -0.1366717609770682 -0.1366717609770682 
-0.1366717609770682 -0.1366717609770682 -0.2435353317388192 -0.2435353317388192 -0.2435353317388192 -0.2435353317388192 -0.3482401510612799 -0.3482401510612799 -0.3482401510612799 
-0.3482401510612799 -0.4480103142213899 -0.4480103142213899 -0.4480103142213899 -0.4480103142213899 -0.5400387296821906 -0.5400387296821906 -0.5400387296821906 -0.5400387296821906 
-0.6221101923225794 -0.6221101923225794 -0.6221101923225794 -0.6221101923225794 -0.6929075583847475 -0.6929075583847475 -0.6929075583847475 -0.6929075583847475 -0.7485570449277908 
-0.7485570449277908 -0.7485570449277908 -0.7485570449277908 -0.8108249035270388 -0.8108249035270388 -0.8108249035270388 -0.8108249035270388 -0.8814079827932004 -0.8814079827932004 
-0.8814079827932004 -0.8814079827932004 -0.8905300766214117 -0.8905300766214117 -0.8905300766214117 -0.8905300766214117 -0.8947422296462983 -0.8947422296462983 -0.8947422296462983 
-0.8947422296462983 -0.8874723958994624 -0.8874723958994624 -0.8874723958994624 -0.8874723958994624 -0.8670208915752664 -0.8670208915752664 -0.8670208915752664 -0.8670208915752664 
-0.8331346843225541 -0.8331346843225541 -0.8331346843225541 -0.8331346843225541 -0.7861338707885333 -0.7861338707885333 -0.7861338707885333 -0.7861338707885333 -0.7266873569405534 
-0.7266873569405534 -0.7266873569405534 -0.7266873569405534 -0.6557299859635499 -0.6557299859635499 -0.6557299859635499 -0.6557299859635499 -0.574405714484071 -0.574405714484071 
-0.574405714484071 -0.574405714484071 -0.4840210900256301 -0.4840210900256301 -0.4840210900256301 -0.4840210900256301 -0.3860119098303407 -0.3860119098303407 -0.3860119098303407 
-0.3860119098303407 -0.2819214194420973 -0.2819214194420973 -0.2819214194420973 -0.2819214194420973 -0.1733838550232024 -0.1733838550232024 -0.1733838550232024 -0.1733838550232024 
-0.06210656705060101 -0.06210656705060101 -0.06210656705060101 -0.06210656705060101 0.05015372683483777 0.05015372683483777 0.05015372683483777 0.05015372683483777 0.1616209730303895 
0.1616209730303895 0.1616209730303895 0.1616209730303895 0.2705327132272045 0.2705327132272045 0.2705327132272045 0.2705327132272045 0.375171182755514 0.375171182755514 
0.375171182755514 0.375171182755514 0.473889917295624 0.473889917295624 0.473889917295624 0.473889917295624 0.5651365670978195 0.5651365670978195 0.5651365670978195 
0.5651365670978195 0.6474744974969748 0.6474744974969748 0.6474744974969748 0.6474744974969748 0.719604595739034 0.719604595739034 0.719604595739034 0.719604595739034 
0.7803871941689984 0.7803871941689984 0.7803871941689984 0.7803871941689984 0.8288620762155554 0.8288620762155554 0.8288620762155554 0.8288620762155554 0.8642632712674549 
0.8642632712674549 0.8642632712674549 0.8642632712674549 0.8860319170761565 0.8860319170761565 0.8860319170761565 0.8860319170761565 0.8938273655373525 0.8938273655373525 
0.8938273655373525 0.8938273655373525 0.8875262933856147 0.8875262933856147 0.8875262933856147 0.8875262933856147 0.8672155456486139 0.8672155456486139 0.8672155456486139 
0.8672155456486139 0.8331983752439189 0.8331983752439189 0.8331983752439189 0.8331983752439189 0.7860260723703425 0.7860260723703425 0.7860260723703425 0.7860260723703425 
0.7265418089102238 0.7265418089102238 0.7265418089102238 0.7265418089102238 0.6559060563798662 0.6559060563798662 0.6559060563798662 0.6559060563798662 0.5755657375169148 
0.5755657375169148 0.5755657375169148 0.5755657375169148 0.4871314853341722 0.4871314853341722 0.4871314853341722 0.4871314853341722 0.3921703857791532 0.3921703857791532 
0.3921703857791532 0.3921703857791532 0.2919863284896296 0.2919863284896296 0.2919863284896296 0.2919863284896296 0.1875042048827228 0.1875042048827228 0.1875042048827228 
0.1875042048827228 0.07935737359963621 0.07935737359963621 0.07935737359963621 0.07935737359963621 -0.03181321172998245 -0.03181321172998245 -0.03181321172998245 -0.03181321172998245 
-0.1449603083529865 -0.1449603083529865 -0.1449603083529865 -0.1449603083529865 -0.2583301475092236 -0.2583301475092236 -0.2583301475092236 -0.2583301475092236 -0.3694176428946989 
-0.3694176428946989 -0.3694176428946989 -0.3694176428946989 -0.4752776785666897 -0.4752776785666897 -0.4752776785666897 -0.4752776785666897 -0.572929153138695 -0.572929153138695 
-0.572929153138695 -0.572929153138695 -0.6600163433201576 -0.6600163433201576 -0.6600163433201576 -0.6600163433201576 -0.7351355472459506 -0.7351355472459506 -0.7351355472459506 
-0.7351355472459506 -0.7941992040165463 -0.7941992040165463 -0.7941992040165463 -0.7941992040165463 -0.8602065071007226 -0.8602065071007226 -0.8602065071007226 -0.8602065071007226 
-0.9185204350115757 -0.9185204350115757 -0.9185204350115757 -0.9185204350115757 -0.9280350561037518 -0.9280350561037518 -0.9280350561037518 -0.9280350561037518 -0.9324375865586809 
-0.9324375865586809 -0.9324375865586809 -0.9324375865586809 -0.9248661545920847 -0.9248661545920847 -0.9248661545920847 -0.9248661545920847 -0.9035484370379949 -0.9035484370379949 
-0.9035484370379949 -0.9035484370379949 -0.8682261016715579 -0.8682261016715579 -0.8682261016715579 -0.8682261016715579 -0.8192398008024846 -0.8192398008024846 -0.8192398008024846 
-0.8192398008024846 -0.7572896121302157 -0.7572896121302157 -0.7572896121302157 -0.7572896121302157 -0.6833488443840509 -0.6833488443840509 -0.6833488443840509 -0.6833488443840509 
-0.598607459107573 -0.598607459107573 -0.598607459107573 -0.598607459107573 -0.5044247642784656 -0.5044247642784656 -0.5044247642784656 -0.5044247642784656 -0.4022954442028301 
-0.4022954442028301 -0.4022954442028301 -0.4022954442028301 -0.2938269491610713 -0.2938269491610713 -0.2938269491610713 -0.2938269491610713 -0.1807222119588945 -0.1807222119588945 
-0.1807222119588945 -0.1807222119588945 -0.06476068646732708 -0.06476068646732708 -0.06476068646732708 -0.06476068646732708 0.05222667523909316 0.05222667523909316 0.05222667523909316 
0.05222667523909316 0.1683888315275032 0.1683888315275032 0.1683888315275032 0.1683888315275032 0.2818889597694533 0.2818889597694533 0.2818889597694533 0.2818889597694533 
0.3909368194425907 0.3909368194425907 0.3909368194425907 0.3909368194425907 0.4938164661705891 0.4938164661705891 0.4938164661705891 0.4938164661705891 0.5889100020952449 
0.5889100020952449 0.5889100020952449 0.5889100020952449 0.6747200904071597 0.6747200904071597 0.6747200904071597 0.6747200904071597 0.7498924886786097 0.7498924886786097 
0.7498924886786097 0.7498924886786097 0.8132395024734476 0.8132395024734476 0.8132395024734476 0.8132395024734476 0.8637602983585382 0.8637602983585382 0.8637602983585382 
0.8637602983585382 0.9006563739199718 0.9006563739199718 0.9006563739199718 0.9006563739199718 0.9233424916810511 0.9233424916810511 0.9233424916810511 0.9233424916810511 
0.9314642256071275 0.9314642256071275 0.9314642256071275 0.9314642256071275 0.9249002509396294 0.9249002509396294 0.9249002509396294 0.9249002509396294 0.9037415231850894 
0.9037415231850894 0.9037415231850894 0.9037415231850894 0.8682996000495447 0.8682996000495447 0.8682996000495447 0.8682996000495447 0.8191477827988797 0.8191477827988797 
0.8191477827988797 0.8191477827988797 0.7571643227655126 0.7571643227655126 0.7571643227655126 0.7571643227655126 0.683557222242767 0.683557222242767 0.683557222242767 
0.683557222242767 0.5998331319046838 0.5998331319046838 0.5998331319046838 0.5998331319046838 0.5076705337618832 0.5076705337618832 0.5076705337618832 0.5076705337618832 
0.4087041240903189 0.4087041240903189 0.4087041240903189 0.4087041240903189 0.3042957197400118 0.3042957197400118 0.3042957197400118 0.3042957197400118 0.1954124418332511 
0.1954124418332511 0.1954124418332511 0.1954124418332511 0.08271611887825504 0.08271611887825504 0.08271611887825504 0.08271611887825504 -0.03312633346590325 -0.03312633346590325 
-0.03312633346590325 -0.03312633346590325 -0.15102736253953 -0.15102736253953 -0.15102736253953 -0.15102736253953 -0.2691642026234983 -0.2691642026234983 -0.2691642026234983 
-0.2691642026234983 -0.3849298093997526 -0.3849298093997526 -0.3849298093997526 -0.3849298093997526 -0.4952552709946383 -0.4952552709946383 -0.4952552709946383 -0.4952552709946383 
-0.5970314220721507 -0.5970314220721507 -0.5970314220721507 -0.5970314220721507 -0.6877982751782235 -0.6877982751782235 -0.6877982751782235 -0.6877982751782235 -0.76608780804856 
-0.76608780804856 -0.76608780804856 -0.76608780804856 -0.8276542621738938 -0.8276542621738938 -0.8276542621738938 -0.8276542621738938 -0.8964186116325463 -0.8964186116325463 
-0.8964186116325463 -0.8964186116325463 -0.9412306266530444 -0.9412306266530444 -0.9412306266530444 -0.9412306266530444 -0.9509761580486318 -0.9509761580486318 -0.9509761580486318 
-0.9509761580486318 -0.9554858987781603 -0.9554858987781603 -0.9554858987781603 -0.9554858987781603 -0.9477485357150832 -0.9477485357150832 -0.9477485357150832 -0.9477485357150832 
-0.925914254455107 -0.925914254455107 -0.925914254455107 -0.925914254455107 -0.8897221654496433 -0.8897221654496433 -0.8897221654496433 -0.8897221654496433 -0.8395214733165154 
-0.8395214733165154 -0.8395214733165154 -0.8395214733165154 -0.7760338084010825 -0.7760338084010825 -0.7760338084010825 -0.7760338084010825 -0.7002596935780119 -0.7002596935780119 
-0.7002596935780119 -0.7002596935780119 -0.6134208613485996 -0.6134208613485996 -0.6134208613485996 -0.6134208613485996 -0.5169106590877135 -0.5169106590877135 -0.5169106590877135 
-0.5169106590877135 -0.4122597583882859 -0.4122597583882859 -0.4122597583882859 -0.4122597583882859 -0.3011138941006899 -0.3011138941006899 -0.3011138941006899 -0.3011138941006899 
-0.1852169567229732 -0.1852169567229732 -0.1852169567229732 -0.1852169567229732 -0.06639176538203749 -0.06639176538203749 -0.06639176538203749 -0.06639176538203749 0.05348571532358246 
0.05348571532358246 0.05348571532358246 0.05348571532358246 0.1725187826917962 0.1725187826917962 0.1725187826917962 0.1725187826917962 0.2888252896938941 0.2888252896938941 
0.2888252896938941 0.2888252896938941 0.40057083117096 0.40057083117096 0.40057083117096 0.40057083117096 0.5059970990857711 0.5059970990857711 0.5059970990857711 
0.5059970990857711 0.6034461191637246 0.6034461191637246 0.6034461191637246 0.6034461191637246 0.6913832735031981 0.6913832735031981 0.6913832735031981 0.6913832735031981 
0.7684202360581988 0.7684202360581988 0.7684202360581988 0.7684202360581988 0.8333395502872124 0.8333395502872124 0.8333395502872124 0.8333395502872124 0.8851145887915366 
0.8851145887915366 0.8851145887915366 0.8851145887915366 0.922929732396805 0.922929732396805 0.922929732396805 0.922929732396805 0.9461837292996648 0.9461837292996648 
0.9461837292996648 0.9461837292996648 0.9544806186603114 0.9544806186603114 0.9544806186603114 0.9544806186603114 0.9477713821388276 0.9477713821388276 0.9477713821388276 
0.9477713821388276 0.9261012067312395 0.9261012067312395 0.9261012067312395 0.9261012067312395 0.8897921017397935 0.8897921017397935 0.8897921017397935 0.8897921017397935 
0.8394310885750019 0.8394310885750019 0.8394310885750019 0.8394310885750019 0.7759199896466346 0.7759199896466346 0.7759199896466346 0.7759199896466346 0.700495353081235 
0.700495353081235 0.700495353081235 0.700495353081235 0.6146998811407183 0.6146998811407183 0.6146998811407183 0.6146998811407183 0.5202534447237821 0.5202534447237821 
0.5202534447237821 0.5202534447237821 0.4188327294911729 0.4188327294911729 0.4188327294911729 0.4188327294911729 0.311836150895801 0.311836150895801 0.311836150895801 
0.311836150895801 0.2002579586583182 0.2002579586583182 0.2002579586583182 0.2002579586583182 0.08477814399823225 0.08477814399823225 0.08477814399823225 0.08477814399823225 
-0.03392080248275516 -0.03392080248275516 -0.03392080248275516 -0.03392080248275516 -0.154728021438483 -0.154728021438483 -0.154728021438483 -0.154728021438483 -0.2757803131035811 
-0.2757803131035811 -0.2757803131035811 -0.2757803131035811 -0.3944095573328464 -0.3944095573328464 -0.3944095573328464 -0.3944095573328464 -0.507471206743011 -0.507471206743011 
-0.507471206743011 -0.507471206743011 -0.6117767069564661 -0.6117767069564661 -0.6117767069564661 -0.6117767069564661 -0.7048005229863025 -0.7048005229863025 -0.7048005229863025 
-0.7048005229863025 -0.7850338649285008 -0.7850338649285008 -0.7850338649285008 -0.7850338649285008 -0.8481333310183667 -0.8481333310183667 -0.8481333310183667 -0.8481333310183667 
-0.9185877047358262 -0.9185877047358262 -0.9185877047358262 -0.9185877047358262 -0.9491012262652267 -0.9491012262652267 -0.9491012262652267 -0.9491012262652267 -0.9589176779176843 
-0.9589176779176843 -0.9589176779176843 -0.9589176779176843 -0.9634594103224321 -0.9634594103224321 -0.9634594103224321 -0.9634594103224321 -0.95568250444324 -0.95568250444324 
-0.95568250444324 -0.95568250444324 -0.933688100788714 -0.933688100788714 -0.933688100788714 -0.933688100788714 -0.8972070190363352 -0.8972070190363352 -0.8972070190363352 
-0.8972070190363352 -0.8465910596697575 -0.8465910596697575 -0.8465910596697575 -0.8465910596697575 -0.7825694626759556 -0.7825694626759556 -0.7825694626759556 -0.7825694626759556 
-0.7061542737528842 -0.7061542737528842 -0.7061542737528842 -0.7061542737528842 -0.6185808899940569 -0.6185808899940569 -0.6185808899940569 -0.6185808899940569 -0.5212568258273511 
-0.5212568258273511 -0.5212568258273511 -0.5212568258273511 -0.4157264650239315 -0.4157264650239315 -0.4157264650239315 -0.4157264650239315 -0.303649062452144 -0.303649062452144 
-0.303649062452144 -0.303649062452144 -0.1867824108261248 -0.1867824108261248 -0.1867824108261248 -0.1867824108261248 -0.06696392208305836 -0.06696392208305836 -0.06696392208305836 
-0.06696392208305836 0.05391521877779855 0.05391521877779855 0.05391521877779855 0.05391521877779855 0.1739427985778467 0.1739427985778467 0.1739427985778467 0.1739427985778467 
0.2912212807347735 0.2912212807347735 0.2912212807347735 0.2912212807347735 0.4039013286140745 0.4039013286140745 0.4039013286140745 0.4039013286140745 0.5102103642579404 
0.5102103642579404 0.5102103642579404 0.5102103642579404 0.6084768792693395 0.6084768792693395 0.6084768792693395 0.6084768792693395 0.6971535126374386 0.6971535126374386 
0.6971535126374386 0.6971535126374386 0.7748400107693396 0.7748400107693396 0.7748400107693396 0.7748400107693396 0.8403080164758504 0.8403080164758504 0.8403080164758504 
0.8403080164758504 0.8925206561661894 0.8925206561661894 0.8925206561661894 0.8925206561661894 0.9306542187798984 0.9306542187798984 0.9306542187798984 0.9306542187798984 
0.9540878439824154 0.9540878439824154 0.9540878439824154 0.9540878439824154 0.962445473608555 0.962445473608555 0.962445473608555 0.962445473608555 0.9556997783222229 