Title = Triangle100
FileType = Solution
Variables = q
Zone T = Triangle100
ZoneType = FETriangle
Nodes = 99072
Elements = 33024
DataPacking = Block
StrandID = 6
SolutionTime = 0.5
0.2152952933623817 0.2152952933623817 0.2152952933623817 0.209641913332301 0.209641913332301 0.209641913332301 0.2063275007859595 0.2063275007859595 0.2063275007859595 -0.1197896823864025 
-0.1197896823864025 -0.1197896823864025 -0.1097382834296669 -0.1097382834296669 -0.1097382834296669 0.3735830131311095 0.3735830131311095 0.3735830131311095 0.3814669214070598 
0.3814669214070598 0.3814669214070598 -0.494380827415405 -0.494380827415405 -0.494380827415405 -0.4987233952054065 -0.4987233952054065 -0.4987233952054065 0.2376862390376776 
0.2376862390376776 0.2376862390376776 0.2340582132500744 0.2340582132500744 0.2340582132500744 0.7122967625441778 0.7122967625441778 0.7122967625441778 0.7109205683667944 
0.7109205683667944 0.7109205683667944 -0.2530936125733528 -0.2530936125733528 -0.2530936125733528 -0.2575782881088552 -0.2575782881088552 -0.2575782881088552 0.1830688695967917 
0.1830688695967917 0.1830688695967917 0.1733682887679109 0.1733682887679109 0.1733682887679109 0.6913330358648662 0.6913330358648662 0.6913330358648662 0.6899547687990468 
0.6899547687990468 0.6899547687990468 0.469318409886041 0.469318409886041 0.469318409886041 0.4546881261160521 0.4546881261160521 0.4546881261160521 0.4492760268402869 
0.4492760268402869 0.4492760268402869 0.1651316697584139 0.1651316697584139 0.1651316697584139 0.1612219963277282 0.1612219963277282 0.1612219963277282 -0.4805620456086831 
-0.4805620456086831 -0.4805620456086831 -0.4803569626337406 -0.4803569626337406 -0.4803569626337406 -0.5092706800538511 -0.5092706800538511 -0.5092706800538511 -0.520111639053249 
-0.520111639053249 -0.520111639053249 -0.1520943735482801 -0.1520943735482801 -0.1520943735482801 -0.1495836776605458 -0.1495836776605458 -0.1495836776605458 -0.781236251097998 
-0.781236251097998 -0.781236251097998 -0.6824189387834131 -0.6824189387834131 -0.6824189387834131 -0.5073266735462584 -0.5073266735462584 -0.5073266735462584 0.1925465519054114 
0.1925465519054114 0.1925465519054114 0.1886416640760115 0.1886416640760115 0.1886416640760115 0.1856176822483734 0.1856176822483734 0.1856176822483734 -0.4456920187117659 
-0.4456920187117659 -0.4456920187117659 -0.4418641528059584 -0.4418641528059584 -0.4418641528059584 -0.4532907459301377 -0.4532907459301377 -0.4532907459301377 0.6985086515240932 
0.6985086515240932 0.6985086515240932 0.7030858057795148 0.7030858057795148 0.7030858057795148 0.7074205226906743 0.7074205226906743 0.7074205226906743 0.1791006128215793 
0.1791006128215793 0.1791006128215793 0.1832076935365431 0.1832076935365431 0.1832076935365431 0.1486733547019148 0.1486733547019148 0.1486733547019148 0.08773758726334914 
0.08773758726334914 0.08773758726334914 0.08410032400975094 0.08410032400975094 0.08410032400975094 0.07994600440843533 0.07994600440843533 0.07994600440843533 0.07944472452256712 
0.07944472452256712 0.07944472452256712 0.0756675518840571 0.0756675518840571 0.0756675518840571 0.07417402639984691 0.07417402639984691 0.07417402639984691 0.3003649099645799 
0.3003649099645799 0.3003649099645799 0.2955094881018591 0.2955094881018591 0.2955094881018591 -0.5341943549886725 -0.5341943549886725 -0.5341943549886725 -0.5281161856192602 
-0.5281161856192602 -0.5281161856192602 -0.7427399704268202 -0.7427399704268202 -0.7427399704268202 -0.7401975730640149 -0.7401975730640149 -0.7401975730640149 0.07078555366360145 
0.07078555366360145 0.07078555366360145 0.07580043725678032 0.07580043725678032 0.07580043725678032 0.1864389068049113 0.1864389068049113 0.1864389068049113 0.1797113814743378 
0.1797113814743378 0.1797113814743378 0.2456299660873137 0.2456299660873137 0.2456299660873137 0.2441203518808487 0.2441203518808487 0.2441203518808487 -0.3425154669598643 
-0.3425154669598643 -0.3425154669598643 -0.3388097170638625 -0.3388097170638625 -0.3388097170638625 0.2899080233346867 0.2899080233346867 0.2899080233346867 0.2824165095177684 
0.2824165095177684 0.2824165095177684 -0.2416480448737937 -0.2416480448737937 -0.2416480448737937 -0.2459597699265569 -0.2459597699265569 -0.2459597699265569 -0.5140828429525443 
-0.5140828429525443 -0.5140828429525443 -0.5064951604784921 -0.5064951604784921 -0.5064951604784921 0.5069752216922224 0.5069752216922224 0.5069752216922224 0.5031130747349009 
0.5031130747349009 0.5031130747349009 -0.2135420731091402 -0.2135420731091402 -0.2135420731091402 -0.2209897453530462 -0.2209897453530462 -0.2209897453530462 -0.0332770515284725 
-0.0332770515284725 -0.0332770515284725 -0.02926006633673685 -0.02926006633673685 -0.02926006633673685 -0.4082425670375792 -0.4082425670375792 -0.4082425670375792 -0.4045431836914219 
-0.4045431836914219 -0.4045431836914219 -0.02832434551537841 -0.02832434551537841 -0.02832434551537841 -0.03119174724098412 -0.03119174724098412 -0.03119174724098412 -0.0465471145732164 
-0.0465471145732164 -0.0465471145732164 -0.04311370513618376 -0.04311370513618376 -0.04311370513618376 0.464958162846156 0.464958162846156 0.464958162846156 0.4582586300124492 
0.4582586300124492 0.4582586300124492 -0.4677570041467792 -0.4677570041467792 -0.4677570041467792 -0.4760150270072999 -0.4760150270072999 -0.4760150270072999 0.2638680977258662 
0.2638680977258662 0.2638680977258662 0.259893741267738 0.259893741267738 0.259893741267738 -0.1050639359295963 -0.1050639359295963 -0.1050639359295963 -0.09028944292582576 
-0.09028944292582576 -0.09028944292582576 0.1306858106729335 0.1306858106729335 0.1306858106729335 0.2563781973389677 0.2563781973389677 0.2563781973389677 0.2488733787301189 
0.2488733787301189 0.2488733787301189 0.7013482142214567 0.7013482142214567 0.7013482142214567 0.6933852315577332 0.6933852315577332 0.6933852315577332 -0.140012951522184 
-0.140012951522184 -0.140012951522184 -0.1536150715653449 -0.1536150715653449 -0.1536150715653449 0.3080113999934747 0.3080113999934747 0.3080113999934747 0.2994282979043932 
0.2994282979043932 0.2994282979043932 -0.2747496662895089 -0.2747496662895089 -0.2747496662895089 -0.2665349312035023 -0.2665349312035023 -0.2665349312035023 -0.4604308746059635 
-0.4604308746059635 -0.4604308746059635 -0.4654772983326023 -0.4654772983326023 -0.4654772983326023 0.2999628269072941 0.2999628269072941 0.2999628269072941 0.2940748007052789 
0.2940748007052789 0.2940748007052789 0.2316033856687185 0.2316033856687185 0.2316033856687185 0.2219558794785039 0.2219558794785039 0.2219558794785039 0.2327415122056894 
0.2327415122056894 0.2327415122056894 0.2255877326185204 0.2255877326185204 0.2255877326185204 0.200195157848563 0.200195157848563 0.200195157848563 0.2127306311213654 
0.2127306311213654 0.2127306311213654 -0.133204959573687 -0.133204959573687 -0.133204959573687 -0.1348351808947252 -0.1348351808947252 -0.1348351808947252 0.01599162827458184 
0.01599162827458184 0.01599162827458184 0.01971011356820167 0.01971011356820167 0.01971011356820167 -0.06008707016197077 -0.06008707016197077 -0.06008707016197077 -0.04880327982229361 
-0.04880327982229361 -0.04880327982229361 -0.4994451232756386 -0.4994451232756386 -0.4994451232756386 -0.509822176138967 -0.509822176138967 -0.509822176138967 0.03291857238965763 
0.03291857238965763 0.03291857238965763 0.04803182107820223 0.04803182107820223 0.04803182107820223 0.06681170423291695 0.06681170423291695 0.06681170423291695 0.0593158333781426 
0.0593158333781426 0.0593158333781426 0.3743753370966899 0.3743753370966899 0.3743753370966899 0.3765150730890283 0.3765150730890283 0.3765150730890283 0.3803151309034343 
0.3803151309034343 0.3803151309034343 -0.4226510050219927 -0.4226510050219927 -0.4226510050219927 -0.4296323081371609 -0.4296323081371609 -0.4296323081371609 -0.4227252519289322 
-0.4227252519289322 -0.4227252519289322 -0.4427830149656574 -0.4427830149656574 -0.4427830149656574 -0.4373950634820676 -0.4373950634820676 -0.4373950634820676 -0.4341654028000547 
-0.4341654028000547 -0.4341654028000547 0.1159448776560112 0.1159448776560112 0.1159448776560112 0.111953297216461 0.111953297216461 0.111953297216461 0.1082946152022635 
0.1082946152022635 0.1082946152022635 -0.2188586919634323 -0.2188586919634323 -0.2188586919634323 -0.2240602146680765 -0.2240602146680765 -0.2240602146680765 -0.228157997850357 
-0.228157997850357 -0.228157997850357 0.6904909480043704 0.6904909480043704 0.6904909480043704 0.6924351622173717 0.6924351622173717 0.6924351622173717 0.1941956160903195 
0.1941956160903195 0.1941956160903195 0.1905198007139701 0.1905198007139701 0.1905198007139701 0.1841127737378129 0.1841127737378129 0.1841127737378129 -0.2758234378373166 
-0.2758234378373166 -0.2758234378373166 -0.2850075135140561 -0.2850075135140561 -0.2850075135140561 -0.2827813195691554 -0.2827813195691554 -0.2827813195691554 -0.3660047794682778 
-0.3660047794682778 -0.3660047794682778 -0.3585038861818411 -0.3585038861818411 -0.3585038861818411 -0.3551312559173804 -0.3551312559173804 -0.3551312559173804 -0.02909894621467428 
-0.02909894621467428 -0.02909894621467428 -0.03741822671661463 -0.03741822671661463 -0.03741822671661463 -0.04085626664840478 -0.04085626664840478 -0.04085626664840478 0.1082819223046704 
0.1082819223046704 0.1082819223046704 0.1079513079612303 0.1079513079612303 0.1079513079612303 -0.04917879804653825 -0.04917879804653825 -0.04917879804653825 0.2313660409863824 
0.2313660409863824 0.2313660409863824 0.2248990265917002 0.2248990265917002 0.2248990265917002 0.2213219546429537 0.2213219546429537 0.2213219546429537 0.5125438328049182 
0.5125438328049182 0.5125438328049182 0.5130721350887734 0.5130721350887734 0.5130721350887734 0.5096232181276416 0.5096232181276416 0.5096232181276416 0.3824694361986554 
0.3824694361986554 0.3824694361986554 0.386034226868784 0.386034226868784 0.386034226868784 -0.5269402664506537 -0.5269402664506537 -0.5269402664506537 -0.5229325393618524 
-0.5229325393618524 -0.5229325393618524 -0.5200118159515396 -0.5200118159515396 -0.5200118159515396 -0.235273416222293 -0.235273416222293 -0.235273416222293 -0.2270643724752134 
-0.2270643724752134 -0.2270643724752134 0.4060418932633211 0.4060418932633211 0.4060418932633211 0.4013825011156154 0.4013825011156154 0.4013825011156154 0.3467812014641896 
0.3467812014641896 0.3467812014641896 0.3531171284728182 0.3531171284728182 0.3531171284728182 -0.2934172115177919 -0.2934172115177919 -0.2934172115177919 -0.2974831019184513 
-0.2974831019184513 -0.2974831019184513 0.1761300338183436 0.1761300338183436 0.1761300338183436 0.1710126802781706 0.1710126802781706 0.1710126802781706 0.3345783852358093 
0.3345783852358093 0.3345783852358093 0.3426144344324643 0.3426144344324643 0.3426144344324643 -0.8102509600784007 -0.8102509600784007 -0.8102509600784007 -0.8067135738210156 
-0.8067135738210156 -0.8067135738210156 0.2602506629515358 0.2602506629515358 0.2602506629515358 0.2562635183930744 0.2562635183930744 0.2562635183930744 -0.6673700838807167 
-0.6673700838807167 -0.6673700838807167 -0.6660459009041357 -0.6660459009041357 -0.6660459009041357 -0.07825956164181447 -0.07825956164181447 -0.07825956164181447 -0.07338829200350051 
-0.07338829200350051 -0.07338829200350051 -0.1968961655154536 -0.1968961655154536 -0.1968961655154536 -0.4426266794353991 -0.4426266794353991 -0.4426266794353991 0.2830013043506918 
0.2830013043506918 0.2830013043506918 0.2789654735641013 0.2789654735641013 0.2789654735641013 -0.2833113232141671 -0.2833113232141671 -0.2833113232141671 -0.2742515517610699 
-0.2742515517610699 -0.2742515517610699 0.03222563367133393 0.03222563367133393 0.03222563367133393 0.02733409236445847 0.02733409236445847 0.02733409236445847 0.3157278229567988 
0.3157278229567988 0.3157278229567988 0.3114039565699837 0.3114039565699837 0.3114039565699837 -0.1783538443884826 -0.1783538443884826 -0.1783538443884826 -0.1822911825796346 
-0.1822911825796346 -0.1822911825796346 -0.183268728600906 -0.183268728600906 -0.183268728600906 -0.18637605453802 -0.18637605453802 -0.18637605453802 0.2709298233234601 
0.2709298233234601 0.2709298233234601 0.2656628932313028 0.2656628932313028 0.2656628932313028 -0.06439587190738369 -0.06439587190738369 -0.06439587190738369 -0.06434875616640293 
-0.06434875616640293 -0.06434875616640293 -0.5609566292909023 -0.5609566292909023 -0.5609566292909023 -0.5710605549264365 -0.5710605549264365 -0.5710605549264365 0.2746560930682179 
0.2746560930682179 0.2746560930682179 0.2769273807974438 0.2769273807974438 0.2769273807974438 -0.7820403509591488 -0.7820403509591488 -0.7820403509591488 -0.7796129126921719 
-0.7796129126921719 -0.7796129126921719 0.3445811175543276 0.3445811175543276 0.3445811175543276 0.3415182816978951 0.3415182816978951 0.3415182816978951 -0.7301672189937768 
-0.7301672189937768 -0.7301672189937768 -0.734499541629886 -0.734499541629886 -0.734499541629886 -0.1585752214767955 -0.1585752214767955 -0.1585752214767955 -0.1523324739068219 
-0.1523324739068219 -0.1523324739068219 -0.50312503744341 -0.50312503744341 -0.50312503744341 -0.5043551898825254 -0.5043551898825254 -0.5043551898825254 -0.686785099688295 
-0.686785099688295 -0.686785099688295 -0.6838925835845746 -0.6838925835845746 -0.6838925835845746 -0.03146689314363432 -0.03146689314363432 -0.03146689314363432 -0.03528953709872272 
-0.03528953709872272 -0.03528953709872272 0.5419909941518888 0.5419909941518888 0.5419909941518888 0.544341404336311 0.544341404336311 0.544341404336311 -0.4587756849207633 
-0.4587756849207633 -0.4587756849207633 -0.4621981055853693 -0.4621981055853693 -0.4621981055853693 0.5697109059367278 0.5697109059367278 0.5697109059367278 0.5730143460980007 
0.5730143460980007 0.5730143460980007 0.4920867577038736 0.4920867577038736 0.4920867577038736 0.4867491235460729 0.4867491235460729 0.4867491235460729 0.3747960438154341 
0.3747960438154341 0.3747960438154341 0.3711271914822457 0.3711271914822457 0.3711271914822457 0.3080168192858597 0.3080168192858597 0.3080168192858597 0.3042528487593199 
0.3042528487593199 0.3042528487593199 -0.4576609862853912 -0.4576609862853912 -0.4576609862853912 0.4278288403453399 0.4278288403453399 0.4278288403453399 0.4318683737604974 
0.4318683737604974 0.4318683737604974 -0.318831918115059 -0.318831918115059 -0.318831918115059 -0.3237952169193964 -0.3237952169193964 -0.3237952169193964 -0.3366494808079908 
-0.3366494808079908 -0.3366494808079908 -0.3330650438743573 -0.3330650438743573 -0.3330650438743573 -0.67150373291312 -0.67150373291312 -0.67150373291312 -0.6711357567512941 
-0.6711357567512941 -0.6711357567512941 0.5020234436927753 0.5020234436927753 0.5020234436927753 0.4472184745707615 0.4472184745707615 0.4472184745707615 0.6311418180939847 
0.6311418180939847 0.6311418180939847 0.6350175276242146 0.6350175276242146 0.6350175276242146 -0.520895909594921 -0.520895909594921 -0.520895909594921 0.05416655081627098 
0.05416655081627098 0.05416655081627098 -0.2219146874262322 -0.2219146874262322 -0.2219146874262322 -0.2156691390314184 -0.2156691390314184 -0.2156691390314184 0.2511991754255704 
0.2511991754255704 0.2511991754255704 0.2546725788089975 0.2546725788089975 0.2546725788089975 -0.2027136504511713 -0.2027136504511713 -0.2027136504511713 -0.1985853018682036 
-0.1985853018682036 -0.1985853018682036 0.68871761351314 0.68871761351314 0.68871761351314 0.05641370744694883 0.05641370744694883 0.05641370744694883 0.05219156629732159 
0.05219156629732159 0.05219156629732159 0.0968630590816157 0.0968630590816157 0.0968630590816157 0.0963679969474481 0.0963679969474481 0.0963679969474481 -0.495378692788652 
-0.495378692788652 -0.495378692788652 -0.4903508158502402 -0.4903508158502402 -0.4903508158502402 -0.4470950278225161 -0.4470950278225161 -0.4470950278225161 -0.4412033340443827 
-0.4412033340443827 -0.4412033340443827 0.2518634224597666 0.2518634224597666 0.2518634224597666 0.2594719594033104 0.2594719594033104 0.2594719594033104 0.08410658838080039 
0.08410658838080039 0.08410658838080039 0.4401311351276793 0.4401311351276793 0.4401311351276793 0.4484359200893454 0.4484359200893454 0.4484359200893454 -0.2273404708983036 
-0.2273404708983036 -0.2273404708983036 -0.2261418355414154 -0.2261418355414154 -0.2261418355414154 -0.2352373450302697 -0.2352373450302697 -0.2352373450302697 -0.2314923168735317 
-0.2314923168735317 -0.2314923168735317 -0.3404542020527362 -0.3404542020527362 -0.3404542020527362 -0.3409060320383651 -0.3409060320383651 -0.3409060320383651 -0.8157511434309971 
-0.8157511434309971 -0.8157511434309971 -0.8122449989965008 -0.8122449989965008 -0.8122449989965008 0.2244243828253076 0.2244243828253076 0.2244243828253076 0.2201116309374307 
0.2201116309374307 0.2201116309374307 -0.4738228456481535 -0.4738228456481535 -0.4738228456481535 -0.47764997170271 -0.47764997170271 -0.47764997170271 0.09822578688316515 
0.09822578688316515 0.09822578688316515 0.0950341328785001 0.0950341328785001 0.0950341328785001 0.203272390506777 0.203272390506777 0.203272390506777 0.1918389467192121 
0.1918389467192121 0.1918389467192121 0.4519986413001593 0.4519986413001593 0.4519986413001593 0.4481394287591433 0.4481394287591433 0.4481394287591433 0.07137279937792418 
0.07137279937792418 0.07137279937792418 0.0677017471972309 0.0677017471972309 0.0677017471972309 -0.1675752018783798 -0.1675752018783798 -0.1675752018783798 -0.1730131414096965 
-0.1730131414096965 -0.1730131414096965 -0.08219766175213279 -0.08219766175213279 -0.08219766175213279 0.1461986785406474 0.1461986785406474 0.1461986785406474 -0.03125370836274411 
-0.03125370836274411 -0.03125370836274411 -0.03223412506182717 -0.03223412506182717 -0.03223412506182717 -0.605145245909711 -0.605145245909711 -0.605145245909711 -0.7073190400993175 
-0.7073190400993175 -0.7073190400993175 -0.1665885005177196 -0.1665885005177196 -0.1665885005177196 -0.2344568767787733 -0.2344568767787733 -0.2344568767787733 -0.2243528731707591 
-0.2243528731707591 -0.2243528731707591 -0.03797730286023483 -0.03797730286023483 -0.03797730286023483 -0.0297969786042569 -0.0297969786042569 -0.0297969786042569 0.2945914413807983 
0.2945914413807983 0.2945914413807983 0.2870938088582985 0.2870938088582985 0.2870938088582985 0.6862970307525917 0.6862970307525917 0.6862970307525917 0.68024872778178 
0.68024872778178 0.68024872778178 0.2887504157006073 0.2887504157006073 0.2887504157006073 0.2783502802883094 0.2783502802883094 0.2783502802883094 0.007553786865488871 
0.007553786865488871 0.007553786865488871 -0.0389431134132744 -0.0389431134132744 -0.0389431134132744 -0.1751481234825355 -0.1751481234825355 -0.1751481234825355 -0.1668715673562995 
-0.1668715673562995 -0.1668715673562995 -0.5158148371543561 -0.5158148371543561 -0.5158148371543561 -0.5219598917522448 -0.5219598917522448 -0.5219598917522448 -0.4002365746299366 
-0.4002365746299366 -0.4002365746299366 -0.3912701438606971 -0.3912701438606971 -0.3912701438606971 -0.1766465078256974 -0.1766465078256974 -0.1766465078256974 -0.1864829009941575 
-0.1864829009941575 -0.1864829009941575 -0.3277846008392902 -0.3277846008392902 -0.3277846008392902 0.1804921045591313 0.1804921045591313 0.1804921045591313 -0.4269704244494615 
-0.4269704244494615 -0.4269704244494615 -0.4218427217721502 -0.4218427217721502 -0.4218427217721502 0.1412874742460112 0.1412874742460112 0.1412874742460112 0.1461823295775322 
0.1461823295775322 0.1461823295775322 0.5539359125756225 0.5539359125756225 0.5539359125756225 0.5533707515302042 0.5533707515302042 0.5533707515302042 0.1816556898319164 
0.1816556898319164 0.1816556898319164 0.1726788359340106 0.1726788359340106 0.1726788359340106 0.02493307053617172 0.02493307053617172 0.02493307053617172 0.0179177804634123 
0.0179177804634123 0.0179177804634123 -0.5108682203121158 -0.5108682203121158 -0.5108682203121158 0.7833926540065339 0.7833926540065339 0.7833926540065339 0.7808663579243296 
0.7808663579243296 0.7808663579243296 0.6787356884504083 0.6787356884504083 0.6787356884504083 0.6884922315546343 0.6884922315546343 0.6884922315546343 -0.2447108482910923 
-0.2447108482910923 -0.2447108482910923 -0.2370607060172585 -0.2370607060172585 -0.2370607060172585 -0.3399848689984517 -0.3399848689984517 -0.3399848689984517 -0.3343535269586597 
-0.3343535269586597 -0.3343535269586597 -0.1093309788099587 -0.1093309788099587 -0.1093309788099587 -0.1114761644527902 -0.1114761644527902 -0.1114761644527902 -0.02636660393398406 
-0.02636660393398406 -0.02636660393398406 -0.02639635810968332 -0.02639635810968332 -0.02639635810968332 0.01818118026363254 0.01818118026363254 0.01818118026363254 0.02688091818740981 
0.02688091818740981 0.02688091818740981 0.1219960441011973 0.1219960441011973 0.1219960441011973 0.2944390277068165 0.2944390277068165 0.2944390277068165 -0.3510700571638601 
-0.3510700571638601 -0.3510700571638601 -0.33977486079972 -0.33977486079972 -0.33977486079972 -0.1437852268365871 -0.1437852268365871 -0.1437852268365871 -0.1433072946094439 
-0.1433072946094439 -0.1433072946094439 -0.5578183629940244 -0.5578183629940244 -0.5578183629940244 -0.5656369684480903 -0.5656369684480903 -0.5656369684480903 0.4540765334866472 
0.4540765334866472 0.4540765334866472 0.4639659806996291 0.4639659806996291 0.4639659806996291 0.5143909916540558 0.5143909916540558 0.5143909916540558 0.501672449302957 
0.501672449302957 0.501672449302957 0.223677130246992 0.223677130246992 0.223677130246992 0.2184346430209646 0.2184346430209646 0.2184346430209646 0.7675085525632533 
0.7675085525632533 0.7675085525632533 0.7762948814370241 0.7762948814370241 0.7762948814370241 -0.249111542043648 -0.249111542043648 -0.249111542043648 -0.2361771274862017 
-0.2361771274862017 -0.2361771274862017 -0.3658591236844546 -0.3658591236844546 -0.3658591236844546 -0.3724263040473194 -0.3724263040473194 -0.3724263040473194 0.766521551658626 
0.766521551658626 0.766521551658626 0.7663023614878122 0.7663023614878122 0.7663023614878122 -0.1594403799356113 -0.1594403799356113 -0.1594403799356113 -0.1679155798886029 
-0.1679155798886029 -0.1679155798886029 -0.5157695584152661 -0.5157695584152661 -0.5157695584152661 -0.5254077985175087 -0.5254077985175087 -0.5254077985175087 0.4116242209481447 
0.4116242209481447 0.4116242209481447 0.4213391017777706 0.4213391017777706 0.4213391017777706 0.2490945087811279 0.2490945087811279 0.2490945087811279 0.242243579733161 
0.242243579733161 0.242243579733161 -0.336210066759843 -0.336210066759843 -0.336210066759843 -0.338382063518436 -0.338382063518436 -0.338382063518436 -0.01519618372305053 
-0.01519618372305053 -0.01519618372305053 -0.02498678070012618 -0.02498678070012618 -0.02498678070012618 0.2129163863322174 0.2129163863322174 0.2129163863322174 0.2094028364971185 
0.2094028364971185 0.2094028364971185 -0.5156676116061597 -0.5156676116061597 -0.5156676116061597 -0.5032731287732596 -0.5032731287732596 -0.5032731287732596 0.3414107989617857 
0.3414107989617857 0.3414107989617857 0.3489020562956232 0.3489020562956232 0.3489020562956232 -0.7123794897482407 -0.7123794897482407 -0.7123794897482407 -0.7112636334648933 
-0.7112636334648933 -0.7112636334648933 0.1067803543380572 0.1067803543380572 0.1067803543380572 0.09907463863817391 0.09907463863817391 0.09907463863817391 0.4399841047791112 
0.4399841047791112 0.4399841047791112 0.4368579140579028 0.4368579140579028 0.4368579140579028 -0.257092095623215 -0.257092095623215 -0.257092095623215 -0.2683529277044908 
-0.2683529277044908 -0.2683529277044908 -0.2062119382896418 -0.2062119382896418 -0.2062119382896418 -0.2135441666393638 -0.2135441666393638 -0.2135441666393638 -0.5364748441043766 
-0.5364748441043766 -0.5364748441043766 -0.5339687845955143 -0.5339687845955143 -0.5339687845955143 -0.1702373435588403 -0.1702373435588403 -0.1702373435588403 -0.1848236057321896 
-0.1848236057321896 -0.1848236057321896 -0.5678896201201816 -0.5678896201201816 -0.5678896201201816 -0.5650599325675862 -0.5650599325675862 -0.5650599325675862 0.5390346560041499 
0.5390346560041499 0.5390346560041499 0.524930745846601 0.524930745846601 0.524930745846601 0.06274993215104316 0.06274993215104316 0.06274993215104316 0.05211833032687072 
0.05211833032687072 0.05211833032687072 -0.4267552044207539 -0.4267552044207539 -0.4267552044207539 -0.4376338556121208 -0.4376338556121208 -0.4376338556121208 -0.4733254247981502 
-0.4733254247981502 -0.4733254247981502 -0.4640106405603028 -0.4640106405603028 -0.4640106405603028 0.2381940653821829 0.2381940653821829 0.2381940653821829 0.2465854696833977 
0.2465854696833977 0.2465854696833977 0.4180643973065545 0.4180643973065545 0.4180643973065545 0.4083958578161909 0.4083958578161909 0.4083958578161909 0.1970598207493389 
0.1970598207493389 0.1970598207493389 0.1910316449396509 0.1910316449396509 0.1910316449396509 -0.02266624591454791 -0.02266624591454791 -0.02266624591454791 -0.03559869933666579 
-0.03559869933666579 -0.03559869933666579 0.1006065939261721 0.1006065939261721 0.1006065939261721 0.09412982235217798 0.09412982235217798 0.09412982235217798 0.09455316414030907 
0.09455316414030907 0.09455316414030907 0.09900668866694591 0.09900668866694591 0.09900668866694591 -0.6910930614179059 -0.6910930614179059 -0.6910930614179059 -0.6941499089740658 
-0.6941499089740658 -0.6941499089740658 -0.6986175081095329 -0.6986175081095329 -0.6986175081095329 -0.4335237950922967 -0.4335237950922967 -0.4335237950922967 -0.4201090759257518 
-0.4201090759257518 -0.4201090759257518 -0.3286913759925936 -0.3286913759925936 -0.3286913759925936 -0.2268163999888374 -0.2268163999888374 -0.2268163999888374 -0.220498209524591 
-0.220498209524591 -0.220498209524591 -0.2200461532148667 -0.2200461532148667 -0.2200461532148667 -0.09129239720801971 -0.09129239720801971 -0.09129239720801971 -0.09546410625315367 
-0.09546410625315367 -0.09546410625315367 -0.08980524307819421 -0.08980524307819421 -0.08980524307819421 -0.6496799546449186 -0.6496799546449186 -0.6496799546449186 -0.6461564767886563 
-0.6461564767886563 -0.6461564767886563 -0.6444861873110217 -0.6444861873110217 -0.6444861873110217 -0.7013513940677245 -0.7013513940677245 -0.7013513940677245 -0.7520953863650185 
-0.7520953863650185 -0.7520953863650185 -0.7308950667804641 -0.7308950667804641 -0.7308950667804641 0.2554410755842153 0.2554410755842153 0.2554410755842153 -0.07801892854323823 
-0.07801892854323823 -0.07801892854323823 -0.08355576763214048 -0.08355576763214048 -0.08355576763214048 -0.08780896574223014 -0.08780896574223014 -0.08780896574223014 0.3385379519526719 
0.3385379519526719 0.3385379519526719 0.3431835234875354 0.3431835234875354 0.3431835234875354 0.3419711777581116 0.3419711777581116 0.3419711777581116 -0.1311595405565033 
-0.1311595405565033 -0.1311595405565033 -0.1376644161266004 -0.1376644161266004 -0.1376644161266004 -0.147032133411874 -0.147032133411874 -0.147032133411874 -0.02210143590734315 
-0.02210143590734315 -0.02210143590734315 -0.01291425985198461 -0.01291425985198461 -0.01291425985198461 -0.005366796767483828 -0.005366796767483828 -0.005366796767483828 -0.08959377429718365 
-0.08959377429718365 -0.08959377429718365 -0.08033686168634935 -0.08033686168634935 -0.08033686168634935 -0.07569027652272389 -0.07569027652272389 -0.07569027652272389 -0.3294908786111015 
-0.3294908786111015 -0.3294908786111015 -0.3462465376062275 -0.3462465376062275 -0.3462465376062275 -0.343675712022002 -0.343675712022002 -0.343675712022002 0.7751204948101053 
0.7751204948101053 0.7751204948101053 0.7695100007498408 0.7695100007498408 0.7695100007498408 0.7676273984279313 0.7676273984279313 0.7676273984279313 -0.5557211889900782 
-0.5557211889900782 -0.5557211889900782 -0.5518986212609253 -0.5518986212609253 -0.5518986212609253 -0.5522155559723643 -0.5522155559723643 -0.5522155559723643 -0.1114915966107137 
-0.1114915966107137 -0.1114915966107137 -0.1163969322662017 -0.1163969322662017 -0.1163969322662017 -0.117883885545686 -0.117883885545686 -0.117883885545686 0.01600490800573875 
0.01600490800573875 0.01600490800573875 0.01388626638440697 0.01388626638440697 0.01388626638440697 0.003846318925261928 0.003846318925261928 0.003846318925261928 -0.3818664886506604 
-0.3818664886506604 -0.3818664886506604 -0.3790932964010728 -0.3790932964010728 -0.3790932964010728 -0.3754595343654039 -0.3754595343654039 -0.3754595343654039 -0.3917461245902258 
-0.3917461245902258 -0.3917461245902258 -0.1997152242590865 -0.1997152242590865 -0.1997152242590865 -0.06898384936382057 -0.06898384936382057 -0.06898384936382057 0.1173267743587728 
0.1173267743587728 0.1173267743587728 0.1212371113700806 0.1212371113700806 0.1212371113700806 0.1251706749362755 0.1251706749362755 0.1251706749362755 0.2983839293969762 
0.2983839293969762 0.2983839293969762 0.304269140779738 0.304269140779738 0.304269140779738 0.3044886675530962 0.3044886675530962 0.3044886675530962 0.5995064800951599 
0.5995064800951599 0.5995064800951599 0.6034057748724639 0.6034057748724639 0.6034057748724639 0.6074777325693448 0.6074777325693448 0.6074777325693448 -0.7595113460031883 
-0.7595113460031883 -0.7595113460031883 -0.755748605382579 -0.755748605382579 -0.755748605382579 -0.7526877724589568 -0.7526877724589568 -0.7526877724589568 0.3623875385661588 
0.3623875385661588 0.3623875385661588 0.3655320954145818 0.3655320954145818 0.3655320954145818 0.3697340941809862 0.3697340941809862 0.3697340941809862 -0.3275112704475739 
-0.3275112704475739 -0.3275112704475739 -0.3356480237109985 -0.3356480237109985 -0.3356480237109985 -0.3399977404519699 -0.3399977404519699 -0.3399977404519699 -0.5994957093822807 
-0.5994957093822807 -0.5994957093822807 -0.2675747058738377 -0.2675747058738377 -0.2675747058738377 -0.4305353501106293 -0.4305353501106293 -0.4305353501106293 -0.04050520469647033 
-0.04050520469647033 -0.04050520469647033 -0.04905939998118061 -0.04905939998118061 -0.04905939998118061 -0.05284123856025247 -0.05284123856025247 -0.05284123856025247 -0.8139496131723534 
-0.8139496131723534 -0.8139496131723534 -0.8219018451020512 -0.8219018451020512 -0.8219018451020512 -0.8197324043551368 -0.8197324043551368 -0.8197324043551368 0.07370465371452695 