Title = Triangle100
FileType = Solution
Variables = q
Zone T = Triangle100
ZoneType = FETriangle
Nodes = 99072
Elements = 33024
DataPacking = Block
StrandID = 15
SolutionTime = 1.4
0.1149824383402954 0.1149824383402954 0.1149824383402954 0.1048071065580769 0.1048071065580769 0.1048071065580769 0.1090426313654116 0.1090426313654116 0.1090426313654116 0.123030642720232 
0.123030642720232 0.123030642720232 0.2136648344999642 0.2136648344999642 0.2136648344999642 0.1676543005418802 0.1676543005418802 0.1676543005418802 0.1860107991789371 
0.1860107991789371 0.1860107991789371 -0.3191939184016833 -0.3191939184016833 -0.3191939184016833 -0.3087608902897751 -0.3087608902897751 -0.3087608902897751 0.4189016447575377 
0.4189016447575377 0.4189016447575377 0.4173106237787168 0.4173106237787168 0.4173106237787168 0.3070566862562442 0.3070566862562442 0.3070566862562442 0.3104247507523012 
0.3104247507523012 0.3104247507523012 -0.1084816005513038 -0.1084816005513038 -0.1084816005513038 -0.1103807546344639 -0.1103807546344639 -0.1103807546344639 -0.2026370257322842 
-0.2026370257322842 -0.2026370257322842 -0.2246933680313872 -0.2246933680313872 -0.2246933680313872 0.2979419715874324 0.2979419715874324 0.2979419715874324 0.2964809491688297 
0.2964809491688297 0.2964809491688297 0.426400638423325 0.426400638423325 0.426400638423325 0.4281502625001854 0.4281502625001854 0.4281502625001854 0.3391532999601049 
0.3391532999601049 0.3391532999601049 0.387611602652788 0.387611602652788 0.387611602652788 0.3858151910044773 0.3858151910044773 0.3858151910044773 -0.2066125572902385 
-0.2066125572902385 -0.2066125572902385 -0.2057819862472233 -0.2057819862472233 -0.2057819862472233 -0.4009161723868866 -0.4009161723868866 -0.4009161723868866 -0.4152640969732755 
-0.4152640969732755 -0.4152640969732755 0.1768106802061963 0.1768106802061963 0.1768106802061963 0.1002032779974069 0.1002032779974069 0.1002032779974069 -0.3591886503630984 
-0.3591886503630984 -0.3591886503630984 -0.3605357305600028 -0.3605357305600028 -0.3605357305600028 -0.362435239303151 -0.362435239303151 -0.362435239303151 0.3989122998508115 
0.3989122998508115 0.3989122998508115 0.3971640578299068 0.3971640578299068 0.3971640578299068 0.3958082914336428 0.3958082914336428 0.3958082914336428 -0.5065561921498812 
-0.5065561921498812 -0.5065561921498812 -0.5049872597399864 -0.5049872597399864 -0.5049872597399864 -0.5102047128487606 -0.5102047128487606 -0.5102047128487606 0.3254333769384813 
0.3254333769384813 0.3254333769384813 0.3160479044706064 0.3160479044706064 0.3160479044706064 0.3125988738065655 0.3125988738065655 0.3125988738065655 -0.2356687735509332 
-0.2356687735509332 -0.2356687735509332 -0.2340031177579929 -0.2340031177579929 -0.2340031177579929 -0.2336077923738256 -0.2336077923738256 -0.2336077923738256 0.03690705570550487 
0.03690705570550487 0.03690705570550487 0.03662092996283516 0.03662092996283516 0.03662092996283516 0.03467623057578496 0.03467623057578496 0.03467623057578496 0.351503632078047 
0.351503632078047 0.351503632078047 0.3499053891723529 0.3499053891723529 0.3499053891723529 0.3498056111437948 0.3498056111437948 0.3498056111437948 0.4460057146492681 
0.4460057146492681 0.4460057146492681 0.4438505346515128 0.4438505346515128 0.4438505346515128 -0.5404026055813174 -0.5404026055813174 -0.5404026055813174 -0.5376779232197247 
-0.5376779232197247 -0.5376779232197247 -0.341640555762507 -0.341640555762507 -0.341640555762507 -0.3384080938926237 -0.3384080938926237 -0.3384080938926237 0.2566704999609623 
0.2566704999609623 0.2566704999609623 0.2547537285596495 0.2547537285596495 0.2547537285596495 -0.2233872382362021 -0.2233872382362021 -0.2233872382362021 -0.2288611977730768 
-0.2288611977730768 -0.2288611977730768 0.1111640258508636 0.1111640258508636 0.1111640258508636 0.115531173757962 0.115531173757962 0.115531173757962 -0.4642349158414061 
-0.4642349158414061 -0.4642349158414061 -0.4626708672451748 -0.4626708672451748 -0.4626708672451748 0.1138325804675147 0.1138325804675147 0.1138325804675147 0.06343958520202324 
0.06343958520202324 0.06343958520202324 -0.1120529061848241 -0.1120529061848241 -0.1120529061848241 -0.1121403693303799 -0.1121403693303799 -0.1121403693303799 -0.3185099316829028 
-0.3185099316829028 -0.3185099316829028 -0.2558419308085571 -0.2558419308085571 -0.2558419308085571 0.2171347552327551 0.2171347552327551 0.2171347552327551 0.2154489958483544 
0.2154489958483544 0.2154489958483544 -0.09160820249742641 -0.09160820249742641 -0.09160820249742641 -0.09478023939568012 -0.09478023939568012 -0.09478023939568012 -0.3304708436698715 
-0.3304708436698715 -0.3304708436698715 -0.3287685509409677 -0.3287685509409677 -0.3287685509409677 -0.4918245639981018 -0.4918245639981018 -0.4918245639981018 -0.4902592482311207 
-0.4902592482311207 -0.4902592482311207 -0.3300655683545115 -0.3300655683545115 -0.3300655683545115 -0.3313131365049625 -0.3313131365049625 -0.3313131365049625 -0.01770653205218411 
-0.01770653205218411 -0.01770653205218411 -0.01328494897962405 -0.01328494897962405 -0.01328494897962405 0.4345620278587066 0.4345620278587066 0.4345620278587066 0.425504471752308 
0.425504471752308 0.425504471752308 -0.2005912959721635 -0.2005912959721635 -0.2005912959721635 -0.2042030907530957 -0.2042030907530957 -0.2042030907530957 0.1129254614550096 
0.1129254614550096 0.1129254614550096 0.1112418615684122 0.1112418615684122 0.1112418615684122 0.213806904517683 0.213806904517683 0.213806904517683 0.2576414741357186 
0.2576414741357186 0.2576414741357186 0.367799265362565 0.367799265362565 0.367799265362565 0.4271041555614966 0.4271041555614966 0.4271041555614966 0.4237788747115752 
0.4237788747115752 0.4237788747115752 0.3010963129995075 0.3010963129995075 0.3010963129995075 0.2973694376975563 0.2973694376975563 0.2973694376975563 -0.060018612486236 
-0.060018612486236 -0.060018612486236 -0.06645591113627876 -0.06645591113627876 -0.06645591113627876 0.4493718800491129 0.4493718800491129 0.4493718800491129 0.4457809351871449 
0.4457809351871449 0.4457809351871449 -0.1176698222316757 -0.1176698222316757 -0.1176698222316757 -0.1141708432219145 -0.1141708432219145 -0.1141708432219145 -0.5137889796251101 
-0.5137889796251101 -0.5137889796251101 -0.5155146074678137 -0.5155146074678137 -0.5155146074678137 0.4457947770885303 0.4457947770885303 0.4457947770885303 0.4432305989926434 
0.4432305989926434 0.4432305989926434 0.1018113549683645 0.1018113549683645 0.1018113549683645 0.100658022125377 0.100658022125377 0.100658022125377 0.4147341103062506 
0.4147341103062506 0.4147341103062506 0.4102488649308401 0.4102488649308401 0.4102488649308401 -0.2214253514931899 -0.2214253514931899 -0.2214253514931899 -0.2154343919016149 
-0.2154343919016149 -0.2154343919016149 0.2412496424644852 0.2412496424644852 0.2412496424644852 0.2548411067235572 0.2548411067235572 0.2548411067235572 -0.3039810078287618 
-0.3039810078287618 -0.3039810078287618 -0.2902769514368848 -0.2902769514368848 -0.2902769514368848 -0.3441448644423902 -0.3441448644423902 -0.3441448644423902 -0.3393368448801147 
-0.3393368448801147 -0.3393368448801147 -0.2300288963329534 -0.2300288963329534 -0.2300288963329534 -0.282585587544172 -0.282585587544172 -0.282585587544172 -0.2995914839584587 
-0.2995914839584587 -0.2995914839584587 -0.2768420020286145 -0.2768420020286145 -0.2768420020286145 0.3466949692832109 0.3466949692832109 0.3466949692832109 0.3433360751806938 
0.3433360751806938 0.3433360751806938 0.1606191105816697 0.1606191105816697 0.1606191105816697 0.1616212414304335 0.1616212414304335 0.1616212414304335 0.1632910290933199 
0.1632910290933199 0.1632910290933199 -0.4869128453084276 -0.4869128453084276 -0.4869128453084276 -0.4831933869445054 -0.4831933869445054 -0.4831933869445054 -0.4664421043082943 
-0.4664421043082943 -0.4664421043082943 -0.5066717312858232 -0.5066717312858232 -0.5066717312858232 -0.5043988220960499 -0.5043988220960499 -0.5043988220960499 -0.5030346137157576 
-0.5030346137157576 -0.5030346137157576 0.05018751756058443 0.05018751756058443 0.05018751756058443 0.04848403139727012 0.04848403139727012 0.04848403139727012 0.04692277215518063 
0.04692277215518063 0.04692277215518063 -0.4114603124063972 -0.4114603124063972 -0.4114603124063972 -0.4135891781195099 -0.4135891781195099 -0.4135891781195099 -0.4153772887470318 
-0.4153772887470318 -0.4153772887470318 0.3500028161059893 0.3500028161059893 0.3500028161059893 0.4093140679252969 0.4093140679252969 0.4093140679252969 0.08380603166504132 
0.08380603166504132 0.08380603166504132 0.08267730147732763 0.08267730147732763 0.08267730147732763 0.07905818843183487 0.07905818843183487 0.07905818843183487 -0.1470450123036869 
-0.1470450123036869 -0.1470450123036869 -0.2022621887346 -0.2022621887346 -0.2022621887346 -0.2345698134287596 -0.2345698134287596 -0.2345698134287596 -0.3771038276270987 
-0.3771038276270987 -0.3771038276270987 -0.3460910409969689 -0.3460910409969689 -0.3460910409969689 -0.3482369037948226 -0.3482369037948226 -0.3482369037948226 0.2067347834111148 
0.2067347834111148 0.2067347834111148 0.07168178022476772 0.07168178022476772 0.07168178022476772 0.07680103780889869 0.07680103780889869 0.07680103780889869 -0.2296035955497454 
-0.2296035955497454 -0.2296035955497454 -0.2274808084042683 -0.2274808084042683 -0.2274808084042683 -0.2274561914341569 -0.2274561914341569 -0.2274561914341569 0.3993083509248684 
0.3993083509248684 0.3993083509248684 0.3915339635700613 0.3915339635700613 0.3915339635700613 0.3907303794567575 0.3907303794567575 0.3907303794567575 0.2367057703888841 
0.2367057703888841 0.2367057703888841 0.2569065758896695 0.2569065758896695 0.2569065758896695 0.262403615275334 0.262403615275334 0.262403615275334 0.1643244735859505 
0.1643244735859505 0.1643244735859505 0.1658990824148618 0.1658990824148618 0.1658990824148618 -0.5299535386157989 -0.5299535386157989 -0.5299535386157989 -0.5288099325500166 
-0.5288099325500166 -0.5288099325500166 -0.5279596255701082 -0.5279596255701082 -0.5279596255701082 -0.1012259341577939 -0.1012259341577939 -0.1012259341577939 -0.09726388891795568 
-0.09726388891795568 -0.09726388891795568 0.1738272034261134 0.1738272034261134 0.1738272034261134 0.1718392853498739 0.1718392853498739 0.1718392853498739 0.1485069120601378 
0.1485069120601378 0.1485069120601378 0.1509991195232248 0.1509991195232248 0.1509991195232248 -0.131730904127961 -0.131730904127961 -0.131730904127961 -0.136695202941473 
-0.136695202941473 -0.136695202941473 0.3920612925161074 0.3920612925161074 0.3920612925161074 0.3897817344391743 0.3897817344391743 0.3897817344391743 0.2522298770772125 
0.2522298770772125 0.2522298770772125 0.2856743536896443 0.2856743536896443 0.2856743536896443 -0.3478420855473118 -0.3478420855473118 -0.3478420855473118 -0.3461966679668365 
-0.3461966679668365 -0.3461966679668365 0.4286159531224255 0.4286159531224255 0.4286159531224255 0.4269050833718565 0.4269050833718565 0.4269050833718565 -0.4908767125974952 
-0.4908767125974952 -0.4908767125974952 -0.5325471196930254 -0.5325471196930254 -0.5325471196930254 0.2619448256516604 0.2619448256516604 0.2619448256516604 0.2764305204883956 
0.2764305204883956 0.2764305204883956 -0.2548735461370871 -0.2548735461370871 -0.2548735461370871 -0.2527088250234685 -0.2527088250234685 -0.2527088250234685 0.1212980691469472 
0.1212980691469472 0.1212980691469472 0.1194314204721452 0.1194314204721452 0.1194314204721452 -0.0818296282587699 -0.0818296282587699 -0.0818296282587699 -0.02136816657287831 
-0.02136816657287831 -0.02136816657287831 -0.286695233190263 -0.286695233190263 -0.286695233190263 -0.2996199186993543 -0.2996199186993543 -0.2996199186993543 0.4527072317967747 
0.4527072317967747 0.4527072317967747 0.4508250056388342 0.4508250056388342 0.4508250056388342 -0.3942661201905565 -0.3942661201905565 -0.3942661201905565 -0.3959738635311952 
-0.3959738635311952 -0.3959738635311952 -0.3965601924564904 -0.3965601924564904 -0.3965601924564904 -0.3978302412478255 -0.3978302412478255 -0.3978302412478255 0.1445068451808995 
0.1445068451808995 0.1445068451808995 0.1531273932971289 0.1531273932971289 0.1531273932971289 -0.3452803509790163 -0.3452803509790163 -0.3452803509790163 -0.3458144294792512 
-0.3458144294792512 -0.3458144294792512 -0.4419193488702152 -0.4419193488702152 -0.4419193488702152 -0.498357023031759 -0.498357023031759 -0.498357023031759 0.1176896325913493 
0.1176896325913493 0.1176896325913493 0.1187263875382624 0.1187263875382624 0.1187263875382624 -0.3351429396501628 -0.3351429396501628 -0.3351429396501628 -0.3339812455710871 
-0.3339812455710871 -0.3339812455710871 0.4650170873701037 0.4650170873701037 0.4650170873701037 0.4637134570159297 0.4637134570159297 0.4637134570159297 -0.4392333596372743 
-0.4392333596372743 -0.4392333596372743 -0.3952145516528349 -0.3952145516528349 -0.3952145516528349 -0.3773918863287833 -0.3773918863287833 -0.3773918863287833 -0.3671004324829431 
-0.3671004324829431 -0.3671004324829431 -0.5317654277167169 -0.5317654277167169 -0.5317654277167169 -0.532243281731561 -0.532243281731561 -0.532243281731561 -0.5874776038090648 
-0.5874776038090648 -0.5874776038090648 -0.5510110993340707 -0.5510110993340707 -0.5510110993340707 0.02178425562607522 0.02178425562607522 0.02178425562607522 0.01779533265267862 
0.01779533265267862 0.01779533265267862 0.5290780018983957 0.5290780018983957 0.5290780018983957 0.5193125028203254 0.5193125028203254 0.5193125028203254 -0.5121588565528639 
-0.5121588565528639 -0.5121588565528639 -0.5126723818693508 -0.5126723818693508 -0.5126723818693508 0.5592690184300505 0.5592690184300505 0.5592690184300505 0.5611335163803716 
0.5611335163803716 0.5611335163803716 0.2459796348281833 0.2459796348281833 0.2459796348281833 0.2190028259861041 0.2190028259861041 0.2190028259861041 0.466536098976857 
0.466536098976857 0.466536098976857 0.4653278089228963 0.4653278089228963 0.4653278089228963 0.4492586262844566 0.4492586262844566 0.4492586262844566 0.4476428874405747 
0.4476428874405747 0.4476428874405747 -0.5120098866652936 -0.5120098866652936 -0.5120098866652936 0.1837965669422788 0.1837965669422788 0.1837965669422788 0.1855896400813589 
0.1855896400813589 0.1855896400813589 -0.4538230964866276 -0.4538230964866276 -0.4538230964866276 -0.4558175916001812 -0.4558175916001812 -0.4558175916001812 -0.4618591656804688 
-0.4618591656804688 -0.4618591656804688 -0.4603390675931761 -0.4603390675931761 -0.4603390675931761 -0.2897209472448731 -0.2897209472448731 -0.2897209472448731 -0.288635253190687 
-0.288635253190687 -0.288635253190687 0.2681895803514545 0.2681895803514545 0.2681895803514545 0.2701839810480047 0.2701839810480047 0.2701839810480047 0.2705863920820134 
0.2705863920820134 0.2705863920820134 0.272143791234966 0.272143791234966 0.272143791234966 -0.2491680685641414 -0.2491680685641414 -0.2491680685641414 -0.2449218021037187 
-0.2449218021037187 -0.2449218021037187 -0.3929970241219105 -0.3929970241219105 -0.3929970241219105 -0.3698499197583137 -0.3698499197583137 -0.3698499197583137 0.109492942327215 
0.109492942327215 0.109492942327215 0.1103025077043803 0.1103025077043803 0.1103025077043803 -0.387003956601273 -0.387003956601273 -0.387003956601273 -0.3867259669322258 
-0.3867259669322258 -0.3867259669322258 0.4308131339794314 0.4308131339794314 0.4308131339794314 -0.0693264438373747 -0.0693264438373747 -0.0693264438373747 -0.02410704565762121 
-0.02410704565762121 -0.02410704565762121 0.3590967024042955 0.3590967024042955 0.3590967024042955 0.3586806032052825 0.3586806032052825 0.3586806032052825 -0.2276590075620794 
-0.2276590075620794 -0.2276590075620794 -0.2300387759384865 -0.2300387759384865 -0.2300387759384865 -0.1921454956028867 -0.1921454956028867 -0.1921454956028867 -0.1896486243807808 
-0.1896486243807808 -0.1896486243807808 0.1079838519266169 0.1079838519266169 0.1079838519266169 0.1111770602547038 0.1111770602547038 0.1111770602547038 0.3538023988524185 
0.3538023988524185 0.3538023988524185 0.1882287209407218 0.1882287209407218 0.1882287209407218 0.1919207956384153 0.1919207956384153 0.1919207956384153 0.2017952912503112 
0.2017952912503112 0.2017952912503112 0.203395208562419 0.203395208562419 0.203395208562419 -0.4178961465604757 -0.4178961465604757 -0.4178961465604757 -0.4164769464378485 
-0.4164769464378485 -0.4164769464378485 -0.458831925129813 -0.458831925129813 -0.458831925129813 -0.4620236727910144 -0.4620236727910144 -0.4620236727910144 -0.3507934668325764 
-0.3507934668325764 -0.3507934668325764 -0.3493042360411124 -0.3493042360411124 -0.3493042360411124 0.4128691559035932 0.4128691559035932 0.4128691559035932 0.4109706841991748 
0.4109706841991748 0.4109706841991748 -0.2038651295383819 -0.2038651295383819 -0.2038651295383819 -0.2055861362210517 -0.2055861362210517 -0.2055861362210517 0.3596319060871507 
0.3596319060871507 0.3596319060871507 0.358262227315661 0.358262227315661 0.358262227315661 0.362887212023243 0.362887212023243 0.362887212023243 0.3343946739186637 
0.3343946739186637 0.3343946739186637 0.1937576257218718 0.1937576257218718 0.1937576257218718 0.1923109197906297 0.1923109197906297 0.1923109197906297 0.04445618796020438 
0.04445618796020438 0.04445618796020438 0.06103617445818341 0.06103617445818341 0.06103617445818341 -0.0364417912916721 -0.0364417912916721 -0.0364417912916721 -0.05185055545930277 
-0.05185055545930277 -0.05185055545930277 -0.1986411367758058 -0.1986411367758058 -0.1986411367758058 -0.2004965451722801 -0.2004965451722801 -0.2004965451722801 0.03474798026926548 
0.03474798026926548 0.03474798026926548 -0.007354907381684293 -0.007354907381684293 -0.007354907381684293 -0.5536398054448229 -0.5536398054448229 -0.5536398054448229 -0.3304967779097864 
-0.3304967779097864 -0.3304967779097864 -0.06381892718240283 -0.06381892718240283 -0.06381892718240283 -0.4178760189263591 -0.4178760189263591 -0.4178760189263591 -0.4135763067520585 
-0.4135763067520585 -0.4135763067520585 -0.3347160334341744 -0.3347160334341744 -0.3347160334341744 -0.3311374474758134 -0.3311374474758134 -0.3311374474758134 0.4435427873000428 
0.4435427873000428 0.4435427873000428 0.4402691004654024 0.4402691004654024 0.4402691004654024 0.2943203655955466 0.2943203655955466 0.2943203655955466 0.2923516462717497 
0.2923516462717497 0.2923516462717497 0.1789027484680167 0.1789027484680167 0.1789027484680167 0.1319909833205931 0.1319909833205931 0.1319909833205931 0.3047910972506118 
0.3047910972506118 0.3047910972506118 0.2987411237800048 0.2987411237800048 0.2987411237800048 -0.3139992198169448 -0.3139992198169448 -0.3139992198169448 -0.2362665347803259 
-0.2362665347803259 -0.2362665347803259 -0.2360056163966757 -0.2360056163966757 -0.2360056163966757 -0.2308224613881795 -0.2308224613881795 -0.2308224613881795 -0.4885449150702402 
-0.4885449150702402 -0.4885449150702402 -0.484727985667751 -0.484727985667751 -0.484727985667751 -0.39015010300354 -0.39015010300354 -0.39015010300354 -0.3963359144043832 
-0.3963359144043832 -0.3963359144043832 -0.2272430797780337 -0.2272430797780337 -0.2272430797780337 -0.2156029329863786 -0.2156029329863786 -0.2156029329863786 -0.1833502725457503 
-0.1833502725457503 -0.1833502725457503 -0.1784075324002082 -0.1784075324002082 -0.1784075324002082 0.3251498893831887 0.3251498893831887 0.3251498893831887 0.3600965024052137 
0.3600965024052137 0.3600965024052137 0.2385346646844707 0.2385346646844707 0.2385346646844707 0.2369786300464568 0.2369786300464568 0.2369786300464568 0.07800027907860974 
0.07800027907860974 0.07800027907860974 0.07416180953916499 0.07416180953916499 0.07416180953916499 -0.3002312486582486 -0.3002312486582486 -0.3002312486582486 -0.2968768055944588 
-0.2968768055944588 -0.2968768055944588 -0.36464300726676 -0.36464300726676 -0.36464300726676 0.3373724977722417 0.3373724977722417 0.3373724977722417 0.3353896990817753 
0.3353896990817753 0.3353896990817753 0.3087643955390077 0.3087643955390077 0.3087643955390077 0.3218074169124914 0.3218074169124914 0.3218074169124914 -0.412095440707897 
-0.412095440707897 -0.412095440707897 -0.3987065136191935 -0.3987065136191935 -0.3987065136191935 -0.1460057314317435 -0.1460057314317435 -0.1460057314317435 -0.141690254124293 
-0.141690254124293 -0.141690254124293 0.2626192400243059 0.2626192400243059 0.2626192400243059 0.2680257329647801 0.2680257329647801 0.2680257329647801 -0.3296448259167454 
-0.3296448259167454 -0.3296448259167454 -0.3291614664457834 -0.3291614664457834 -0.3291614664457834 -0.3120256709501407 -0.3120256709501407 -0.3120256709501407 -0.3090566982337875 
-0.3090566982337875 -0.3090566982337875 0.3638422173738296 0.3638422173738296 0.3638422173738296 0.3644961999410447 0.3644961999410447 0.3644961999410447 -0.3860583410084417 
-0.3860583410084417 -0.3860583410084417 -0.3635265753954723 -0.3635265753954723 -0.3635265753954723 -0.03557449275870951 -0.03557449275870951 -0.03557449275870951 0.1027773273684472 
0.1027773273684472 0.1027773273684472 -0.4131647355360554 -0.4131647355360554 -0.4131647355360554 -0.4582822902293467 -0.4582822902293467 -0.4582822902293467 0.2847767674272715 
0.2847767674272715 0.2847767674272715 0.2659018103169646 0.2659018103169646 0.2659018103169646 0.2204471003222521 0.2204471003222521 0.2204471003222521 0.2146902789322284 
0.2146902789322284 0.2146902789322284 0.4126079217743275 0.4126079217743275 0.4126079217743275 0.410231154388811 0.410231154388811 0.410231154388811 0.3296213877825084 
0.3296213877825084 0.3296213877825084 0.3333060616700774 0.3333060616700774 0.3333060616700774 -0.2512681195009159 -0.2512681195009159 -0.2512681195009159 -0.1242917370457631 
-0.1242917370457631 -0.1242917370457631 -0.4564810903594414 -0.4564810903594414 -0.4564810903594414 -0.4715308599323451 -0.4715308599323451 -0.4715308599323451 0.3284659860124947 
0.3284659860124947 0.3284659860124947 0.3286498369669605 0.3286498369669605 0.3286498369669605 -0.3858359518821192 -0.3858359518821192 -0.3858359518821192 -0.3894225833362537 
-0.3894225833362537 -0.3894225833362537 -0.2211134009694902 -0.2211134009694902 -0.2211134009694902 -0.2261730485746916 -0.2261730485746916 -0.2261730485746916 0.4787814082148275 
0.4787814082148275 0.4787814082148275 0.4847884007642438 0.4847884007642438 0.4847884007642438 0.4237092390351597 0.4237092390351597 0.4237092390351597 0.4207479687594606 
0.4207479687594606 0.4207479687594606 -0.1443308085709125 -0.1443308085709125 -0.1443308085709125 -0.1563962224985811 -0.1563962224985811 -0.1563962224985811 -0.3227416738317378 
-0.3227416738317378 -0.3227416738317378 -0.3269430815165455 -0.3269430815165455 -0.3269430815165455 0.303815731853208 0.303815731853208 0.303815731853208 0.1708189772047601 
0.1708189772047601 0.1708189772047601 -0.2397816551683099 -0.2397816551683099 -0.2397816551683099 -0.2239524063390463 -0.2239524063390463 -0.2239524063390463 0.1461803762119305 
0.1461803762119305 0.1461803762119305 0.1494477281359037 0.1494477281359037 0.1494477281359037 -0.5616999902864398 -0.5616999902864398 -0.5616999902864398 -0.5881330700364975 
-0.5881330700364975 -0.5881330700364975 0.04626309865545819 0.04626309865545819 0.04626309865545819 0.04298253126703053 0.04298253126703053 0.04298253126703053 0.5046057839289068 
0.5046057839289068 0.5046057839289068 0.5018984441347394 0.5018984441347394 0.5018984441347394 0.1215461358353429 0.1215461358353429 0.1215461358353429 -0.09038747577311092 
-0.09038747577311092 -0.09038747577311092 0.1891779142783347 0.1891779142783347 0.1891779142783347 0.1869636334353457 0.1869636334353457 0.1869636334353457 -0.4834838267039382 
-0.4834838267039382 -0.4834838267039382 -0.5149969191672936 -0.5149969191672936 -0.5149969191672936 0.002265775279101388 0.002265775279101388 0.002265775279101388 -0.0644678364546388 
-0.0644678364546388 -0.0644678364546388 -0.5320532780512833 -0.5320532780512833 -0.5320532780512833 -0.5487463943635955 -0.5487463943635955 -0.5487463943635955 0.23506625450175 
0.23506625450175 0.23506625450175 0.2262169906827625 0.2262169906827625 0.2262169906827625 0.3446144506420639 0.3446144506420639 0.3446144506420639 0.3377186009042029 
0.3377186009042029 0.3377186009042029 -0.1833928421919994 -0.1833928421919994 -0.1833928421919994 -0.1876463148129302 -0.1876463148129302 -0.1876463148129302 -0.2028594312137453 
-0.2028594312137453 -0.2028594312137453 -0.1994996628164676 -0.1994996628164676 -0.1994996628164676 0.4192663606259472 0.4192663606259472 0.4192663606259472 0.4228630683191065 
0.4228630683191065 0.4228630683191065 0.1790289107650813 0.1790289107650813 0.1790289107650813 0.1754672284995826 0.1754672284995826 0.1754672284995826 0.4013424497866621 
0.4013424497866621 0.4013424497866621 0.3985132618598446 0.3985132618598446 0.3985132618598446 0.3099249217455363 0.3099249217455363 0.3099249217455363 0.3060478603601977 
0.3060478603601977 0.3060478603601977 0.3598787952095567 0.3598787952095567 0.3598787952095567 0.3560508014950913 0.3560508014950913 0.3560508014950913 0.3535533352492516 
0.3535533352492516 0.3535533352492516 0.3552791142516817 0.3552791142516817 0.3552791142516817 -0.4969072885720367 -0.4969072885720367 -0.4969072885720367 -0.397256266117607 
-0.397256266117607 -0.397256266117607 -0.3733083985997966 -0.3733083985997966 -0.3733083985997966 -0.1886874344900976 -0.1886874344900976 -0.1886874344900976 -0.1830534596472487 
-0.1830534596472487 -0.1830534596472487 -0.1710031396990517 -0.1710031396990517 -0.1710031396990517 -0.4129383348616537 -0.4129383348616537 -0.4129383348616537 -0.4096085670000938 
-0.4096085670000938 -0.4096085670000938 -0.4067024644510343 -0.4067024644510343 -0.4067024644510343 -0.2750149111316271 -0.2750149111316271 -0.2750149111316271 -0.2714090558068016 
-0.2714090558068016 -0.2714090558068016 -0.1753663881441172 -0.1753663881441172 -0.1753663881441172 -0.5133357609217314 -0.5133357609217314 -0.5133357609217314 -0.5181599262288317 
-0.5181599262288317 -0.5181599262288317 -0.5448234651190671 -0.5448234651190671 -0.5448234651190671 -0.3436871469319879 -0.3436871469319879 -0.3436871469319879 -0.3401350947076951 
-0.3401350947076951 -0.3401350947076951 -0.3382198522817546 -0.3382198522817546 -0.3382198522817546 0.4266558097357791 0.4266558097357791 0.4266558097357791 0.2110648348853912 
0.2110648348853912 0.2110648348853912 0.1952793098045832 0.1952793098045832 0.1952793098045832 0.197390982396292 0.197390982396292 0.197390982396292 0.1927176109158099 
0.1927176109158099 0.1927176109158099 0.1860054564205946 0.1860054564205946 0.1860054564205946 0.1589414147439214 0.1589414147439214 0.1589414147439214 0.2268508682607427 
0.2268508682607427 0.2268508682607427 0.224408029591549 0.224408029591549 0.224408029591549 0.116443078875356 0.116443078875356 0.116443078875356 -0.3248591555201188 
-0.3248591555201188 -0.3248591555201188 -0.3203216877842217 -0.3203216877842217 -0.3203216877842217 -0.3088964439987778 -0.3088964439987778 -0.3088964439987778 0.1550644875390284 
0.1550644875390284 0.1550644875390284 0.2262133966786932 0.2262133966786932 0.2262133966786932 0.2381247424051233 0.2381247424051233 0.2381247424051233 -0.3292844982326651 
-0.3292844982326651 -0.3292844982326651 -0.3875548758475824 -0.3875548758475824 -0.3875548758475824 -0.3085753352515989 -0.3085753352515989 -0.3085753352515989 0.3355834069790272 
0.3355834069790272 0.3355834069790272 0.3331272551227457 0.3331272551227457 0.3331272551227457 0.3316404046034493 0.3316404046034493 0.3316404046034493 -0.4983894355680392 
-0.4983894355680392 -0.4983894355680392 -0.4998769387752185 -0.4998769387752185 -0.4998769387752185 -0.5260944565709866 -0.5260944565709866 -0.5260944565709866 0.2319469735375135 
0.2319469735375135 0.2319469735375135 0.231386207814591 0.231386207814591 0.231386207814591 0.2430209189028405 0.2430209189028405 0.2430209189028405 -0.24273945644188 
-0.24273945644188 -0.24273945644188 -0.2982472412833357 -0.2982472412833357 -0.2982472412833357 -0.3127940259181796 -0.3127940259181796 -0.3127940259181796 -0.4804203273529708 
-0.4804203273529708 -0.4804203273529708 -0.4793262068191794 -0.4793262068191794 -0.4793262068191794 -0.4777943846113242 -0.4777943846113242 -0.4777943846113242 -0.2642999189419601 
-0.2642999189419601 -0.2642999189419601 -0.2632871982965076 -0.2632871982965076 -0.2632871982965076 -0.2648711973014132 -0.2648711973014132 -0.2648711973014132 0.3660526733605405 
0.3660526733605405 0.3660526733605405 0.3678458120551243 0.3678458120551243 0.3678458120551243 0.3693197142846801 0.3693197142846801 0.3693197142846801 0.4450199215847624 
0.4450199215847624 0.4450199215847624 0.4475217092883977 0.4475217092883977 0.4475217092883977 0.4476078953175971 0.4476078953175971 0.4476078953175971 0.374813684926361 
0.374813684926361 0.374813684926361 0.3637584264930658 0.3637584264930658 0.3637584264930658 0.3483866198321684 0.3483866198321684 0.3483866198321684 -0.32555059056669 
-0.32555059056669 -0.32555059056669 -0.3238477160914772 -0.3238477160914772 -0.3238477160914772 -0.3224771697554059 -0.3224771697554059 -0.3224771697554059 0.155716948452379 
0.155716948452379 0.155716948452379 0.1571130172212138 0.1571130172212138 0.1571130172212138 0.1589808215046079 0.1589808215046079 0.1589808215046079 -0.4553824757294621 
-0.4553824757294621 -0.4553824757294621 -0.459852049528247 -0.459852049528247 -0.459852049528247 -0.4616217384093982 -0.4616217384093982 -0.4616217384093982 -0.3381570096350867 
-0.3381570096350867 -0.3381570096350867 -0.3363313094642346 -0.3363313094642346 -0.3363313094642346 -0.3346370211227501 -0.3346370211227501 -0.3346370211227501 0.3023427645846886 
0.3023427645846886 0.3023427645846886 0.298778685076493 0.298778685076493 0.298778685076493 0.2972161735991817 0.2972161735991817 0.2972161735991817 -0.3554949508643171 
-0.3554949508643171 -0.3554949508643171 -0.3548450459930489 -0.3548450459930489 -0.3548450459930489 -0.3532362326737706 -0.3532362326737706 -0.3532362326737706 -0.2906066293386107 
-0.2906066293386107 -0.2906066293386107 -0.2940693805814939 -0.2940693805814939 -0.2940693805814939 -0.2923601936474729 -0.2923601936474729 -0.2923601936474729 -0.4542837038797356 