Title = Triangle100
FileType = Solution
Variables = q
Zone T = Triangle100
ZoneType = FETriangle
Nodes = 99072
Elements = 33024
DataPacking = Block
StrandID = 7
SolutionTime = 0.6000000000000001
0.1873358573288087 0.1873358573288087 0.1873358573288087 0.1824300100459926 0.1824300100459926 0.1824300100459926 0.1795500037804996 0.1795500037804996 0.1795500037804996 -0.1046988773711395 
-0.1046988773711395 -0.1046988773711395 -0.09599883280542246 -0.09599883280542246 -0.09599883280542246 0.3250388086814526 0.3250388086814526 0.3250388086814526 0.3318470680429826 
0.3318470680429826 0.3318470680429826 -0.4301704602505158 -0.4301704602505158 -0.4301704602505158 -0.433979145740008 -0.433979145740008 -0.433979145740008 0.207732939976822 
0.207732939976822 0.207732939976822 0.2046019874385347 0.2046019874385347 0.2046019874385347 0.6219219859749243 0.6219219859749243 0.6219219859749243 0.6204596666614548 
0.6204596666614548 0.6204596666614548 -0.2203459683576846 -0.2203459683576846 -0.2203459683576846 -0.2242562694666521 -0.2242562694666521 -0.2242562694666521 0.1603452735618676 
0.1603452735618676 0.1603452735618676 0.1520220377995393 0.1520220377995393 0.1520220377995393 0.6067553119657012 0.6067553119657012 0.6067553119657012 0.6041079862942789 
0.6041079862942789 0.6041079862942789 0.4080259340342789 0.4080259340342789 0.4080259340342789 0.3952747064064091 0.3952747064064091 0.3952747064064091 0.3906962687010772 
0.3906962687010772 0.3906962687010772 0.1695461364656038 0.1695461364656038 0.1695461364656038 0.2559562573192295 0.2559562573192295 0.2559562573192295 -0.4188235988042966 
-0.4188235988042966 -0.4188235988042966 -0.4189947250672753 -0.4189947250672753 -0.4189947250672753 -0.4430204782755069 -0.4430204782755069 -0.4430204782755069 -0.452459782035922 
-0.452459782035922 -0.452459782035922 -0.1330447861080504 -0.1330447861080504 -0.1330447861080504 -0.1307517520196477 -0.1307517520196477 -0.1307517520196477 -0.7316237625301967 
-0.7316237625301967 -0.7316237625301967 -0.7341996764809299 -0.7341996764809299 -0.7341996764809299 -0.737915501684682 -0.737915501684682 -0.737915501684682 0.2439645849587156 
0.2439645849587156 0.2439645849587156 0.374465708840177 0.374465708840177 0.374465708840177 0.5041231805507081 0.5041231805507081 0.5041231805507081 -0.3873852111131018 
-0.3873852111131018 -0.3873852111131018 -0.3840619917768755 -0.3840619917768755 -0.3840619917768755 -0.3939785443478439 -0.3939785443478439 -0.3939785443478439 0.6093089118609968 
0.6093089118609968 0.6093089118609968 0.6134380159196959 0.6134380159196959 0.6134380159196959 0.6173149804457472 0.6173149804457472 0.6173149804457472 0.1060922740067514 
0.1060922740067514 0.1060922740067514 0.1127256955691737 0.1127256955691737 0.1127256955691737 0.03031899795172974 0.03031899795172974 0.03031899795172974 0.07663627161412057 
0.07663627161412057 0.07663627161412057 0.07347018060241126 0.07347018060241126 0.07347018060241126 0.06985455125596796 0.06985455125596796 0.06985455125596796 0.0695730743085633 
0.0695730743085633 0.0695730743085633 0.06628491270341824 0.06628491270341824 0.06628491270341824 0.06500258913784426 0.06500258913784426 0.06500258913784426 0.261819451142461 
0.261819451142461 0.261819451142461 0.2576356548988861 0.2576356548988861 0.2576356548988861 -0.4642672943313021 -0.4642672943313021 -0.4642672943313021 -0.458975346110291 
-0.458975346110291 -0.458975346110291 -0.6481164488380193 -0.6481164488380193 -0.6481164488380193 -0.6458918035157846 -0.6458918035157846 -0.6458918035157846 0.06186733583023506 
0.06186733583023506 0.06186733583023506 0.06621828243725555 0.06621828243725555 0.06621828243725555 -0.2046296908011907 -0.2046296908011907 -0.2046296908011907 -0.1717491214295978 
-0.1717491214295978 -0.1717491214295978 0.2137027999250431 0.2137027999250431 0.2137027999250431 0.2123796136330233 0.2123796136330233 0.2123796136330233 -0.2979550844009924 
-0.2979550844009924 -0.2979550844009924 -0.2947499251532557 -0.2947499251532557 -0.2947499251532557 0.2534987086786648 0.2534987086786648 0.2534987086786648 0.2472179364912172 
0.2472179364912172 0.2472179364912172 -0.2101651631097011 -0.2101651631097011 -0.2101651631097011 -0.213913972638813 -0.213913972638813 -0.213913972638813 -0.447381535881469 
-0.447381535881469 -0.447381535881469 -0.4409064683301701 -0.4409064683301701 -0.4409064683301701 0.4424070090986243 0.4424070090986243 0.4424070090986243 0.4389740390332958 
0.4389740390332958 0.4389740390332958 -0.1859611416771879 -0.1859611416771879 -0.1859611416771879 -0.1924530494748994 -0.1924530494748994 -0.1924530494748994 -0.02941656126220361 
-0.02941656126220361 -0.02941656126220361 -0.0259053383790219 -0.0259053383790219 -0.0259053383790219 -0.354922478589282 -0.354922478589282 -0.354922478589282 -0.3517229038892246 
-0.3517229038892246 -0.3517229038892246 -0.04533826602467179 -0.04533826602467179 -0.04533826602467179 -0.02871662395824589 -0.02871662395824589 -0.02871662395824589 -0.04078865344438829 
-0.04078865344438829 -0.04078865344438829 -0.03780041117570223 -0.03780041117570223 -0.03780041117570223 0.4042114206840541 0.4042114206840541 0.4042114206840541 0.3983883773542175 
0.3983883773542175 0.3983883773542175 -0.4083892506143469 -0.4083892506143469 -0.4083892506143469 -0.4156995034715108 -0.4156995034715108 -0.4156995034715108 0.2297036151948638 
0.2297036151948638 0.2297036151948638 0.2262390306483243 0.2262390306483243 0.2262390306483243 -0.09190262265268158 -0.09190262265268158 -0.09190262265268158 -0.07911968937628948 
-0.07911968937628948 -0.07911968937628948 0.7480488052603841 0.7480488052603841 0.7480488052603841 0.2238323734898944 0.2238323734898944 0.2238323734898944 0.2173863454023869 
0.2173863454023869 0.2173863454023869 0.6137507058472843 0.6137507058472843 0.6137507058472843 0.6062626847605042 0.6062626847605042 0.6062626847605042 -0.1222368247228085 
-0.1222368247228085 -0.1222368247228085 -0.1340606795700312 -0.1340606795700312 -0.1340606795700312 0.2684045842240664 0.2684045842240664 0.2684045842240664 0.2609817043546506 
0.2609817043546506 0.2609817043546506 -0.239244251914875 -0.239244251914875 -0.239244251914875 -0.2320726848035843 -0.2320726848035843 -0.2320726848035843 -0.4001701430140071 
-0.4001701430140071 -0.4001701430140071 -0.4045566729568911 -0.4045566729568911 -0.4045566729568911 0.261524846839733 0.261524846839733 0.261524846839733 0.2564347514911522 
0.2564347514911522 0.2564347514911522 0.2015283842534031 0.2015283842534031 0.2015283842534031 0.1931417442680171 0.1931417442680171 0.1931417442680171 0.2027491960497513 
0.2027491960497513 0.2027491960497513 0.196512861028689 0.196512861028689 0.196512861028689 -0.1276940251319211 -0.1276940251319211 -0.1276940251319211 -0.1203875861765661 
-0.1203875861765661 -0.1203875861765661 -0.1166572779482822 -0.1166572779482822 -0.1166572779482822 -0.1182166633536182 -0.1182166633536182 -0.1182166633536182 0.01415557196678804 
0.01415557196678804 0.01415557196678804 0.01737668469010917 0.01737668469010917 0.01737668469010917 -0.05275626220351579 -0.05275626220351579 -0.05275626220351579 -0.04289434319485108 
-0.04289434319485108 -0.04289434319485108 -0.4348552315033747 -0.4348552315033747 -0.4348552315033747 -0.4437210893313697 -0.4437210893313697 -0.4437210893313697 0.029011132219115 
0.029011132219115 0.029011132219115 0.04215453858273979 0.04215453858273979 0.04215453858273979 0.05860624668928613 0.05860624668928613 0.05860624668928613 0.05203050977029975 
0.05203050977029975 0.05203050977029975 0.3266168670701279 0.3266168670701279 0.3266168670701279 0.3285623550229342 0.3285623550229342 0.3285623550229342 0.3319224993307098 
0.3319224993307098 0.3319224993307098 -0.3673444270709478 -0.3673444270709478 -0.3673444270709478 -0.373428848325677 -0.373428848325677 -0.373428848325677 -0.3674667235024268 
-0.3674667235024268 -0.3674667235024268 -0.3848575709530691 -0.3848575709530691 -0.3848575709530691 -0.3801889033496746 -0.3801889033496746 -0.3801889033496746 -0.3773908940485708 
-0.3773908940485708 -0.3773908940485708 0.101131992348178 0.101131992348178 0.101131992348178 0.09765313808031617 0.09765313808031617 0.09765313808031617 0.09446517464181078 
0.09446517464181078 0.09446517464181078 -0.1911540519234764 -0.1911540519234764 -0.1911540519234764 -0.1957195697873018 -0.1957195697873018 -0.1957195697873018 -0.1992626313552801 
-0.1992626313552801 -0.1992626313552801 0.6021365551413475 0.6021365551413475 0.6021365551413475 0.6036410303748408 0.6036410303748408 0.6036410303748408 0.1689847033246395 
0.1689847033246395 0.1689847033246395 0.1657935020524816 0.1657935020524816 0.1657935020524816 0.1602502706055714 0.1602502706055714 0.1602502706055714 -0.2399818796096422 
-0.2399818796096422 -0.2399818796096422 -0.2479199426429684 -0.2479199426429684 -0.2479199426429684 -0.2459605497283259 -0.2459605497283259 -0.2459605497283259 -0.3181930000954583 
-0.3181930000954583 -0.3181930000954583 -0.3116768052391721 -0.3116768052391721 -0.3116768052391721 -0.3087446311892023 -0.3087446311892023 -0.3087446311892023 -0.02571780082791839 
-0.02571780082791839 -0.02571780082791839 -0.03290134276816147 -0.03290134276816147 -0.03290134276816147 -0.03589424108595021 -0.03589424108595021 -0.03589424108595021 -0.3666965811481729 
-0.3666965811481729 -0.3666965811481729 -0.3675491745941887 -0.3675491745941887 -0.3675491745941887 -0.4256032476964833 -0.4256032476964833 -0.4256032476964833 0.2014176077491227 
0.2014176077491227 0.2014176077491227 0.1957783857345994 0.1957783857345994 0.1957783857345994 0.1926782186091492 0.1926782186091492 0.1926782186091492 0.4464825510342667 
0.4464825510342667 0.4464825510342667 0.446752622754897 0.446752622754897 0.446752622754897 0.4437188416042655 0.4437188416042655 0.4437188416042655 0.3339100891542429 
0.3339100891542429 0.3339100891542429 0.3370691526809472 0.3370691526809472 0.3370691526809472 -0.4580093075015613 -0.4580093075015613 -0.4580093075015613 -0.4545133224935405 
-0.4545133224935405 -0.4545133224935405 -0.4519664513472311 -0.4519664513472311 -0.4519664513472311 -0.2047185832812164 -0.2047185832812164 -0.2047185832812164 -0.1976294966494967 
-0.1976294966494967 -0.1976294966494967 0.3540024400436736 0.3540024400436736 0.3540024400436736 0.3499393888022539 0.3499393888022539 0.3499393888022539 0.3023000103665498 
0.3023000103665498 0.3023000103665498 0.3076365621366223 0.3076365621366223 0.3076365621366223 -0.2553505941673906 -0.2553505941673906 -0.2553505941673906 -0.2588531465367844 
-0.2588531465367844 -0.2588531465367844 0.2230649907522627 0.2230649907522627 0.2230649907522627 0.3660496013555295 0.3660496013555295 0.3660496013555295 0.2909645294596674 
0.2909645294596674 0.2909645294596674 0.2979296580657926 0.2979296580657926 0.2979296580657926 -0.7096670222958035 -0.7096670222958035 -0.7096670222958035 -0.7063920621989848 
-0.7063920621989848 -0.7063920621989848 0.2270533056865639 0.2270533056865639 0.2270533056865639 0.2236005935431038 0.2236005935431038 0.2236005935431038 -0.5813703621879382 
-0.5813703621879382 -0.5813703621879382 -0.5800752556027509 -0.5800752556027509 -0.5800752556027509 -0.06857942391341998 -0.06857942391341998 -0.06857942391341998 -0.06435864683639467 
-0.06435864683639467 -0.06435864683639467 -0.4723733932616213 -0.4723733932616213 -0.4723733932616213 -0.4928309967155713 -0.4928309967155713 -0.4928309967155713 0.247099650506965 
0.247099650506965 0.247099650506965 0.243563504860684 0.243563504860684 0.243563504860684 -0.2480239630396371 -0.2480239630396371 -0.2480239630396371 -0.2401127691695391 
-0.2401127691695391 -0.2401127691695391 0.02835139298576124 0.02835139298576124 0.02835139298576124 0.02409253618763766 0.02409253618763766 0.02409253618763766 0.2750555641786418 
0.2750555641786418 0.2750555641786418 0.2713312188112024 0.2713312188112024 0.2713312188112024 -0.1558388966543423 -0.1558388966543423 -0.1558388966543423 -0.1592464419546103 
-0.1592464419546103 -0.1592464419546103 -0.1599629680391251 -0.1599629680391251 -0.1599629680391251 -0.1627099372710308 -0.1627099372710308 -0.1627099372710308 0.23572043581964 
0.23572043581964 0.23572043581964 0.2311406841820313 0.2311406841820313 0.2311406841820313 -0.05642024543862343 -0.05642024543862343 -0.05642024543862343 -0.05642103987108333 
-0.05642103987108333 -0.05642103987108333 -0.4881134779300952 -0.4881134779300952 -0.4881134779300952 -0.4968087912527169 -0.4968087912527169 -0.4968087912527169 0.2392940208430699 
0.2392940208430699 0.2392940208430699 0.2413248612093675 0.2413248612093675 0.2413248612093675 -0.6840608638972313 -0.6840608638972313 -0.6840608638972313 -0.6817632129154043 
-0.6817632129154043 -0.6817632129154043 0.2999212079619939 0.2999212079619939 0.2999212079619939 0.2972726452858003 0.2972726452858003 0.2972726452858003 -0.6368037088382105 
-0.6368037088382105 -0.6368037088382105 -0.6406910158479382 -0.6406910158479382 -0.6406910158479382 -0.1381996713128378 -0.1381996713128378 -0.1381996713128378 -0.1327572912391506 
-0.1327572912391506 -0.1327572912391506 -0.4372102562532133 -0.4372102562532133 -0.4372102562532133 -0.4382853687077652 -0.4382853687077652 -0.4382853687077652 -0.5982556923648397 
-0.5982556923648397 -0.5982556923648397 -0.5958415902385337 -0.5958415902385337 -0.5958415902385337 -0.02772548994678552 -0.02772548994678552 -0.02772548994678552 -0.03105580669957035 
-0.03105580669957035 -0.03105580669957035 0.4712213832449939 0.4712213832449939 0.4712213832449939 0.4733168853893435 0.4733168853893435 0.4733168853893435 -0.3987152983631921 
-0.3987152983631921 -0.3987152983631921 -0.4016927475476377 -0.4016927475476377 -0.4016927475476377 0.4952079035178206 0.4952079035178206 0.4952079035178206 0.498075665235127 
0.498075665235127 0.498075665235127 0.4284402079535516 0.4284402079535516 0.4284402079535516 0.4240119583406249 0.4240119583406249 0.4240119583406249 0.3258025702429407 
0.3258025702429407 0.3258025702429407 0.3226215144169691 0.3226215144169691 0.3226215144169691 0.2684795550827057 0.2684795550827057 0.2684795550827057 0.2652296149372964 
0.2652296149372964 0.2652296149372964 -0.3977730524438919 -0.3977730524438919 -0.3977730524438919 0.3736652779167978 0.3736652779167978 0.3736652779167978 0.3772600966241398 
0.3772600966241398 0.3772600966241398 -0.2775646755808596 -0.2775646755808596 -0.2775646755808596 -0.2818898036728907 -0.2818898036728907 -0.2818898036728907 -0.2929378238227288 
-0.2929378238227288 -0.2929378238227288 -0.2898403775139435 -0.2898403775139435 -0.2898403775139435 -0.5897808759038019 -0.5897808759038019 -0.5897808759038019 -0.5878580107711947 
-0.5878580107711947 -0.5878580107711947 0.5387249988412163 0.5387249988412163 0.5387249988412163 0.5409386317608419 0.5409386317608419 0.5409386317608419 0.5510831169679395 
0.5510831169679395 0.5510831169679395 0.5545647551326454 0.5545647551326454 0.5545647551326454 -0.4940958109412024 -0.4940958109412024 -0.4940958109412024 -0.4089887925702927 
-0.4089887925702927 -0.4089887925702927 -0.1931121987063524 -0.1931121987063524 -0.1931121987063524 -0.1876573147734471 -0.1876573147734471 -0.1876573147734471 0.2185642318191803 
0.2185642318191803 0.2185642318191803 0.2215900049747818 0.2215900049747818 0.2215900049747818 -0.1764736614312917 -0.1764736614312917 -0.1764736614312917 -0.1728992360969709 
-0.1728992360969709 -0.1728992360969709 0.6003265239068238 0.6003265239068238 0.6003265239068238 0.0493574841559864 0.0493574841559864 0.0493574841559864 0.04568247435293572 
0.04568247435293572 0.04568247435293572 0.08492448959529177 0.08492448959529177 0.08492448959529177 0.08467009426543501 0.08467009426543501 0.08467009426543501 -0.4313488016325134 
-0.4313488016325134 -0.4313488016325134 -0.4269310580933515 -0.4269310580933515 -0.4269310580933515 -0.3907048726228184 -0.3907048726228184 -0.3907048726228184 -0.385569986308946 
-0.385569986308946 -0.385569986308946 0.2194558167377583 0.2194558167377583 0.2194558167377583 0.2260403243949938 0.2260403243949938 0.2260403243949938 0.07374012152855441 
0.07374012152855441 0.07374012152855441 0.3836523719196204 0.3836523719196204 0.3836523719196204 0.3906847050124243 0.3906847050124243 0.3906847050124243 0.02120378814535977 
0.02120378814535977 0.02120378814535977 -0.09536358627773864 -0.09536358627773864 -0.09536358627773864 -0.2048515860061252 -0.2048515860061252 -0.2048515860061252 -0.2016141677406347 
-0.2016141677406347 -0.2016141677406347 -0.2960953458516469 -0.2960953458516469 -0.2960953458516469 -0.2965485581215356 -0.2965485581215356 -0.2965485581215356 -0.7153820668092662 
-0.7153820668092662 -0.7153820668092662 -0.7123192190124584 -0.7123192190124584 -0.7123192190124584 0.1963058874693475 0.1963058874693475 0.1963058874693475 0.1925792891702825 
0.1925792891702825 0.1925792891702825 -0.4142978885839544 -0.4142978885839544 -0.4142978885839544 -0.4177280623526737 -0.4177280623526737 -0.4177280623526737 0.08599934880107291 
0.08599934880107291 0.08599934880107291 0.08322877962703029 0.08322877962703029 0.08322877962703029 0.1769230297580738 0.1769230297580738 0.1769230297580738 0.1669901904132944 
0.1669901904132944 0.1669901904132944 0.3938850417973244 0.3938850417973244 0.3938850417973244 0.3904805085992945 0.3904805085992945 0.3904805085992945 0.06238640593360614 
0.06238640593360614 0.06238640593360614 0.05920648643785204 0.05920648643785204 0.05920648643785204 -0.1464072660694924 -0.1464072660694924 -0.1464072660694924 -0.1511472067797264 
-0.1511472067797264 -0.1511472067797264 -0.3470389725782362 -0.3470389725782362 -0.3470389725782362 -0.3098478245013108 -0.3098478245013108 -0.3098478245013108 -0.02751560775808677 
-0.02751560775808677 -0.02751560775808677 -0.02835780975228718 -0.02835780975228718 -0.02835780975228718 -0.5263882068113447 -0.5263882068113447 -0.5263882068113447 -0.6171002972232194 
-0.6171002972232194 -0.6171002972232194 -0.1455094602418614 -0.1455094602418614 -0.1455094602418614 -0.2045276369114348 -0.2045276369114348 -0.2045276369114348 -0.1957785680546592 
-0.1957785680546592 -0.1957785680546592 -0.03348515867099486 -0.03348515867099486 -0.03348515867099486 -0.02636399514019885 -0.02636399514019885 -0.02636399514019885 0.2568397381255152 
0.2568397381255152 0.2568397381255152 0.2503792741785848 0.2503792741785848 0.2503792741785848 0.5997212598680484 0.5997212598680484 0.5997212598680484 0.5940868363231508 
0.5940868363231508 0.5940868363231508 0.2511918289476236 0.2511918289476236 0.2511918289476236 0.242195335625806 0.242195335625806 0.242195335625806 0.5292172398463055 
0.5292172398463055 0.5292172398463055 0.4402841469316995 0.4402841469316995 0.4402841469316995 -0.1524874685668779 -0.1524874685668779 -0.1524874685668779 -0.1452718899464625 
-0.1452718899464625 -0.1452718899464625 -0.4492583173437508 -0.4492583173437508 -0.4492583173437508 -0.4547610572753401 -0.4547610572753401 -0.4547610572753401 -0.3480360891802103 
-0.3480360891802103 -0.3480360891802103 -0.3402823741831079 -0.3402823741831079 -0.3402823741831079 -0.1540035163266563 -0.1540035163266563 -0.1540035163266563 -0.1625861010571975 
-0.1625861010571975 -0.1625861010571975 -0.4242699083788632 -0.4242699083788632 -0.4242699083788632 -0.1406041091496244 -0.1406041091496244 -0.1406041091496244 -0.3738537710063569 
-0.3738537710063569 -0.3738537710063569 -0.3697690848109079 -0.3697690848109079 -0.3697690848109079 0.1230532795803147 0.1230532795803147 0.1230532795803147 0.1273699739138207 
0.1273699739138207 0.1273699739138207 0.482755889928916 0.482755889928916 0.482755889928916 0.4826105301681507 0.4826105301681507 0.4826105301681507 0.1582695185553346 
0.1582695185553346 0.1582695185553346 0.1504342048031756 0.1504342048031756 0.1504342048031756 0.02206246179267548 0.02206246179267548 0.02206246179267548 0.0158855016472148 
0.0158855016472148 0.0158855016472148 -0.7424769087288892 -0.7424769087288892 -0.7424769087288892 0.6876019120406691 0.6876019120406691 0.6876019120406691 0.684020490043846 
0.684020490043846 0.684020490043846 0.5921047885250446 0.5921047885250446 0.5921047885250446 0.6005665576061872 0.6005665576061872 0.6005665576061872 -0.2129112125959401 
-0.2129112125959401 -0.2129112125959401 -0.2062443898127938 -0.2062443898127938 -0.2062443898127938 -0.2969747581478139 -0.2969747581478139 -0.2969747581478139 -0.2924245623872502 
-0.2924245623872502 -0.2924245623872502 -0.09577636374689941 -0.09577636374689941 -0.09577636374689941 -0.09776563153653686 -0.09776563153653686 -0.09776563153653686 -0.02392808626073353 
-0.02392808626073353 -0.02392808626073353 -0.1449642859986571 -0.1449642859986571 -0.1449642859986571 -0.5172627490165553 -0.5172627490165553 -0.5172627490165553 -0.179335982167969 
-0.179335982167969 -0.179335982167969 0.7397150637006262 0.7397150637006262 0.7397150637006262 0.7418888481682 0.7418888481682 0.7418888481682 -0.3052112640901651 
-0.3052112640901651 -0.3052112640901651 -0.2953965308340217 -0.2953965308340217 -0.2953965308340217 -0.1256111393104178 -0.1256111393104178 -0.1256111393104178 -0.1252995483422947 
-0.1252995483422947 -0.1252995483422947 -0.4854539062077731 -0.4854539062077731 -0.4854539062077731 -0.4921866370674 -0.4921866370674 -0.4921866370674 0.3949763102363043 
0.3949763102363043 0.3949763102363043 0.4036299212978046 0.4036299212978046 0.4036299212978046 0.4484115501450919 0.4484115501450919 0.4484115501450919 0.4373510846317609 
0.4373510846317609 0.4373510846317609 0.1955828392824814 0.1955828392824814 0.1955828392824814 0.1911074024279597 0.1911074024279597 0.1911074024279597 0.6722225036898443 
0.6722225036898443 0.6722225036898443 0.6798343111738634 0.6798343111738634 0.6798343111738634 -0.2166372711306441 -0.2166372711306441 -0.2166372711306441 -0.2053890572651095 
-0.2053890572651095 -0.2053890572651095 -0.3180465068981971 -0.3180465068981971 -0.3180465068981971 -0.3237585085053679 -0.3237585085053679 -0.3237585085053679 0.6703990688505815 
0.6703990688505815 0.6703990688505815 0.670619510534467 0.670619510534467 0.670619510534467 -0.1390597531593738 -0.1390597531593738 -0.1390597531593738 -0.1464022299433013 
-0.1464022299433013 -0.1464022299433013 -0.4496521973198268 -0.4496521973198268 -0.4496521973198268 -0.4580849140069759 -0.4580849140069759 -0.4580849140069759 0.3577869057109615 
0.3577869057109615 0.3577869057109615 0.3662236982516021 0.3662236982516021 0.3662236982516021 0.2176150158457468 0.2176150158457468 0.2176150158457468 0.2117142843721809 
0.2117142843721809 0.2117142843721809 -0.292622631312282 -0.292622631312282 -0.292622631312282 -0.2944079474879985 -0.2944079474879985 -0.2944079474879985 -0.0135593128818886 
-0.0135593128818886 -0.0135593128818886 -0.02215719320460385 -0.02215719320460385 -0.02215719320460385 0.1852297569122136 0.1852297569122136 0.1852297569122136 0.1821446640908224 
0.1821446640908224 0.1821446640908224 -0.4490141943006035 -0.4490141943006035 -0.4490141943006035 -0.4383029684597594 -0.4383029684597594 -0.4383029684597594 0.2975194665830735 
0.2975194665830735 0.2975194665830735 0.3041211624801978 0.3041211624801978 0.3041211624801978 -0.6208660409784986 -0.6208660409784986 -0.6208660409784986 -0.6198263265086972 
-0.6198263265086972 -0.6198263265086972 0.09313120970596667 0.09313120970596667 0.09313120970596667 0.0864241974253159 0.0864241974253159 0.0864241974253159 0.3823918954520358 
0.3823918954520358 0.3823918954520358 0.3796557120959669 0.3796557120959669 0.3796557120959669 -0.2225947418956903 -0.2225947418956903 -0.2225947418956903 -0.2350127951999173 
-0.2350127951999173 -0.2350127951999173 -0.179631146846931 -0.179631146846931 -0.179631146846931 -0.1790906295831024 -0.1790906295831024 -0.1790906295831024 -0.4665914035847298 
-0.4665914035847298 -0.4665914035847298 -0.4642940495864248 -0.4642940495864248 -0.4642940495864248 -0.1487362849313704 -0.1487362849313704 -0.1487362849313704 -0.1613868705288906 
-0.1613868705288906 -0.1613868705288906 -0.493909759007668 -0.493909759007668 -0.493909759007668 -0.4913274840922364 -0.4913274840922364 -0.4913274840922364 0.4698829759574766 
0.4698829759574766 0.4698829759574766 0.4577566161787404 0.4577566161787404 0.4577566161787404 0.05507740390608699 0.05507740390608699 0.05507740390608699 0.04571817436887188 
0.04571817436887188 0.04571817436887188 -0.3728563696271171 -0.3728563696271171 -0.3728563696271171 -0.382003224261773 -0.382003224261773 -0.382003224261773 -0.4126262111756529 
-0.4126262111756529 -0.4126262111756529 -0.4043833174550187 -0.4043833174550187 -0.4043833174550187 0.2078932132079011 0.2078932132079011 0.2078932132079011 0.2151567094620956 
0.2151567094620956 0.2151567094620956 0.3645251850477368 0.3645251850477368 0.3645251850477368 0.3566542835633419 0.3566542835633419 0.3566542835633419 0.1725625333563279 
0.1725625333563279 0.1725625333563279 0.1714883092538019 0.1714883092538019 0.1714883092538019 0.5141327443997341 0.5141327443997341 0.5141327443997341 0.20060554973619 
0.20060554973619 0.20060554973619 0.08801916669894334 0.08801916669894334 0.08801916669894334 0.08232761090505177 0.08232761090505177 0.08232761090505177 0.08265338160853471 
0.08265338160853471 0.08265338160853471 0.08652019425098441 0.08652019425098441 0.08652019425098441 -0.6023198953315334 -0.6023198953315334 -0.6023198953315334 -0.6052395055054083 
-0.6052395055054083 -0.6052395055054083 -0.6092307212050831 -0.6092307212050831 -0.6092307212050831 -0.3846144421101896 -0.3846144421101896 -0.3846144421101896 -0.3739650445125149 
-0.3739650445125149 -0.3739650445125149 -0.3445120003081235 -0.3445120003081235 -0.3445120003081235 -0.197575519122957 -0.197575519122957 -0.197575519122957 -0.1920799690589688 
-0.1920799690589688 -0.1920799690589688 -0.1916435363153831 -0.1916435363153831 -0.1916435363153831 -0.07969050551141717 -0.07969050551141717 -0.07969050551141717 -0.08331230827618383 
-0.08331230827618383 -0.08331230827618383 -0.07831048879524358 -0.07831048879524358 -0.07831048879524358 -0.5657270506114389 -0.5657270506114389 -0.5657270506114389 -0.562610436887935 
-0.562610436887935 -0.562610436887935 -0.5610523815976577 -0.5610523815976577 -0.5610523815976577 -0.6996376223629303 -0.6996376223629303 -0.6996376223629303 -0.6926673765284752 
-0.6926673765284752 -0.6926673765284752 -0.6885219326845126 -0.6885219326845126 -0.6885219326845126 0.2228208930975135 0.2228208930975135 0.2228208930975135 -0.06835729669003399 
-0.06835729669003399 -0.06835729669003399 -0.07314061309333522 -0.07314061309333522 -0.07314061309333522 -0.07685185001001207 -0.07685185001001207 -0.07685185001001207 0.2944507031257392 
0.2944507031257392 0.2944507031257392 0.2984935169544136 0.2984935169544136 0.2984935169544136 0.2975030589899586 0.2975030589899586 0.2975030589899586 -0.1148090028378856 
-0.1148090028378856 -0.1148090028378856 -0.1205291260536753 -0.1205291260536753 -0.1205291260536753 -0.1285750123778999 -0.1285750123778999 -0.1285750123778999 -0.01955523833089046 
-0.01955523833089046 -0.01955523833089046 -0.0114715000869926 -0.0114715000869926 -0.0114715000869926 -0.00474076748791869 -0.00474076748791869 -0.00474076748791869 -0.07833025255719211 
-0.07833025255719211 -0.07833025255719211 -0.07031000690863785 -0.07031000690863785 -0.07031000690863785 -0.06625556423071192 -0.06625556423071192 -0.06625556423071192 -0.2864576718048811 
-0.2864576718048811 -0.2864576718048811 -0.3010212107474263 -0.3010212107474263 -0.3010212107474263 -0.2987914916855465 -0.2987914916855465 -0.2987914916855465 0.6836636829386784 
0.6836636829386784 0.6836636829386784 0.678643787393485 0.678643787393485 0.678643787393485 0.6757096790126058 0.6757096790126058 0.6757096790126058 -0.4833782202468183 
-0.4833782202468183 -0.4833782202468183 -0.4800281877541107 -0.4800281877541107 -0.4800281877541107 -0.480214970910474 -0.480214970910474 -0.480214970910474 -0.09758297415007292 
-0.09758297415007292 -0.09758297415007292 -0.1018883954711166 -0.1018883954711166 -0.1018883954711166 -0.1032472225219621 -0.1032472225219621 -0.1032472225219621 0.01410764634855303 
0.01410764634855303 0.01410764634855303 0.01230013994050984 0.01230013994050984 0.01230013994050984 0.003277427315657382 0.003277427315657382 0.003277427315657382 -0.3320018499132458 
-0.3320018499132458 -0.3320018499132458 -0.3296161239668233 -0.3296161239668233 -0.3296161239668233 -0.3264733989421069 -0.3264733989421069 -0.3264733989421069 -0.5036731489375377 
-0.5036731489375377 -0.5036731489375377 -0.4217233394713975 -0.4217233394713975 -0.4217233394713975 -0.4067514746520753 -0.4067514746520753 -0.4067514746520753 0.7413685441563609 
0.7413685441563609 0.7413685441563609 0.7437351456538466 0.7437351456538466 0.7437351456538466 0.7486755821205258 0.7486755821205258 0.7486755821205258 0.259990449266259 
0.259990449266259 0.259990449266259 0.2651080172502381 0.2651080172502381 0.2651080172502381 0.2653394490738637 0.2653394490738637 0.2653394490738637 0.5220104924345162 
0.5220104924345162 0.5220104924345162 0.5254589939902308 0.5254589939902308 0.5254589939902308 0.5290764081564051 0.5290764081564051 0.5290764081564051 -0.6643313459939024 
-0.6643313459939024 -0.6643313459939024 -0.6608915828306456 -0.6608915828306456 -0.6608915828306456 -0.6580982417489261 -0.6580982417489261 -0.6580982417489261 0.3164189958817186 
0.3164189958817186 0.3164189958817186 0.3192050878068913 0.3192050878068913 0.3192050878068913 0.3229319806227992 0.3229319806227992 0.3229319806227992 -0.2848615770942898 
-0.2848615770942898 -0.2848615770942898 -0.2919323514480124 -0.2919323514480124 -0.2919323514480124 -0.295699115620873 -0.295699115620873 -0.295699115620873 -0.6877402520024316 
-0.6877402520024316 -0.6877402520024316 -0.6832612268160918 -0.6832612268160918 -0.6832612268160918 -0.6800368858934617 -0.6800368858934617 -0.6800368858934617 0.3786681126927511 
0.3786681126927511 0.3786681126927511 0.1991348396093839 0.1991348396093839 0.1991348396093839 0.2979767483861308 0.2979767483861308 0.2979767483861308 -0.7242518227445399 