Title = Triangle100
FileType = Solution
Variables = q
Zone T = Triangle100
ZoneType = FETriangle
Nodes = 99072
Elements = 33024
DataPacking = Block
StrandID = 5
SolutionTime = 0.4
0.2530992826700526 0.2530992826700526 0.2530992826700526 0.2464337590859727 0.2464337590859727 0.2464337590859727 0.2425378373227935 0.2425378373227935 0.2425378373227935 -0.139893625093974 
-0.139893625093974 -0.139893625093974 -0.1280006404944755 -0.1280006404944755 -0.1280006404944755 0.438718580034028 0.438718580034028 0.438718580034028 0.448097223876627 
0.448097223876627 0.448097223876627 -0.5797535363835769 -0.5797535363835769 -0.5797535363835769 -0.5847254269134989 -0.5847254269134989 -0.5847254269134989 0.278362635408313 
0.278362635408313 0.278362635408313 0.2740531672033703 0.2740531672033703 0.2740531672033703 0.8248258290456283 0.8248258290456283 0.8248258290456283 0.8243662973417822 
0.8243662973417822 0.8243662973417822 -0.2971178239072974 -0.2971178239072974 -0.2971178239072974 -0.3023513543478926 -0.3023513543478926 -0.3023513543478926 0.2129473938411642 
0.2129473938411642 0.2129473938411642 0.2013857438021491 0.2013857438021491 0.2013857438021491 0.5170856144447343 0.5170856144447343 0.5170856144447343 0.6773836226144994 
0.6773836226144994 0.6773836226144994 0.5514910337835495 0.5514910337835495 0.5514910337835495 0.5344885130759971 0.5344885130759971 0.5344885130759971 0.5277385509450034 
0.5277385509450034 0.5277385509450034 0.192673100972232 0.192673100972232 0.192673100972232 0.1880110431990408 0.1880110431990408 0.1880110431990408 -0.5615478466813761 
-0.5615478466813761 -0.5615478466813761 -0.5602720320282965 -0.5602720320282965 -0.5602720320282965 -0.5974597453797357 -0.5974597453797357 -0.5974597453797357 -0.6100840277817665 
-0.6100840277817665 -0.6100840277817665 -0.1772877661186573 -0.1772877661186573 -0.1772877661186573 -0.1745583380712778 -0.1745583380712778 -0.1745583380712778 -0.1214065436008106 
-0.1214065436008106 -0.1214065436008106 -0.1246505666466963 -0.1246505666466963 -0.1246505666466963 -0.129408148407472 -0.129408148407472 -0.129408148407472 0.2246631415468089 
0.2246631415468089 0.2246631415468089 0.2200212712067338 0.2200212712067338 0.2200212712067338 0.2164269611019919 0.2164269611019919 0.2164269611019919 -0.5246076235572802 
-0.5246076235572802 -0.5246076235572802 -0.5201168591467045 -0.5201168591467045 -0.5201168591467045 -0.5335672185197096 -0.5335672185197096 -0.5335672185197096 0.8114475861049929 
0.8114475861049929 0.8114475861049929 0.8161509030551621 0.8161509030551621 0.8161509030551621 0.8207310079402779 0.8207310079402779 0.8207310079402779 0.2099676821945548 
0.2099676821945548 0.2099676821945548 0.2139046299464936 0.2139046299464936 0.2139046299464936 0.2158376525274935 0.2158376525274935 0.2158376525274935 0.1026515426169786 
0.1026515426169786 0.1026515426169786 0.09838696182312212 0.09838696182312212 0.09838696182312212 0.09351146543843636 0.09351146543843636 0.09351146543843636 0.09269134841913956 
0.09269134841913956 0.09269134841913956 0.08824797433522504 0.08824797433522504 0.08824797433522504 0.08645441282546824 0.08645441282546824 0.08645441282546824 0.3528934054597859 
0.3528934054597859 0.3528934054597859 0.3471263446648045 0.3471263446648045 0.3471263446648045 -0.6279937998353022 -0.6279937998353022 -0.6279937998353022 -0.620929365934638 
-0.620929365934638 -0.620929365934638 -0.8612733047530293 -0.8612733047530293 -0.8612733047530293 -0.8583936420512126 -0.8583936420512126 -0.8583936420512126 0.08281713544681735 
0.08281713544681735 0.08281713544681735 0.08874276896621269 0.08874276896621269 0.08874276896621269 0.2443157808088791 0.2443157808088791 0.2443157808088791 0.2311177530966988 
0.2311177530966988 0.2311177530966988 0.2886897481727099 0.2886897481727099 0.2886897481727099 0.28694529126198 0.28694529126198 0.28694529126198 -0.4030943906984846 
-0.4030943906984846 -0.4030943906984846 -0.3987165186040946 -0.3987165186040946 -0.3987165186040946 0.3375838342176112 0.3375838342176112 0.3375838342176112 0.3282391662878652 
0.3282391662878652 0.3282391662878652 -0.2842075933249519 -0.2842075933249519 -0.2842075933249519 -0.2892710600088644 -0.2892710600088644 -0.2892710600088644 -0.6024313077037742 
-0.6024313077037742 -0.6024313077037742 -0.5931497708535995 -0.5931497708535995 -0.5931497708535995 0.5903890404138746 0.5903890404138746 0.5903890404138746 0.5861260995439859 
0.5861260995439859 0.5861260995439859 -0.250666298939266 -0.250666298939266 -0.250666298939266 -0.2593866639022781 -0.2593866639022781 -0.2593866639022781 -0.03837511836863959 
-0.03837511836863959 -0.03837511836863959 -0.03366290884916513 -0.03366290884916513 -0.03366290884916513 -0.4807624623290945 -0.4807624623290945 -0.4807624623290945 -0.4763957298430029 
-0.4763957298430029 -0.4763957298430029 -0.03271901247645247 -0.03271901247645247 -0.03271901247645247 -0.03607540222244904 -0.03607540222244904 -0.03607540222244904 -0.05426657006258363 
-0.05426657006258363 -0.05426657006258363 -0.05023073276916116 -0.05023073276916116 -0.05023073276916116 0.5464748335673417 0.5464748335673417 0.5464748335673417 0.5386305163455134 
0.5386305163455134 0.5386305163455134 -0.5445207879438079 -0.5445207879438079 -0.5445207879438079 -0.5537981005376921 -0.5537981005376921 -0.5537981005376921 0.3097992330372117 
0.3097992330372117 0.3097992330372117 0.3051608354324256 0.3051608354324256 0.3051608354324256 -0.1225727691911008 -0.1225727691911008 -0.1225727691911008 -0.1051040728255402 
-0.1051040728255402 -0.1051040728255402 0.1437406780421276 0.1437406780421276 0.1437406780421276 0.3006046254509976 0.3006046254509976 0.3006046254509976 0.2916488896863487 
0.2916488896863487 0.2916488896863487 0.7207381756378004 0.7207381756378004 0.7207381756378004 0.7901176838898596 0.7901176838898596 0.7901176838898596 -0.1638154432686851 
-0.1638154432686851 -0.1638154432686851 -0.1798467527233165 -0.1798467527233165 -0.1798467527233165 0.361983602553804 0.361983602553804 0.361983602553804 0.3518066121535504 
0.3518066121535504 0.3518066121535504 -0.3223488695438008 -0.3223488695438008 -0.3223488695438008 -0.3127855022798995 -0.3127855022798995 -0.3127855022798995 -0.5420057698691041 
-0.5420057698691041 -0.5420057698691041 -0.5478799537699135 -0.5478799537699135 -0.5478799537699135 0.3522793064291402 0.3522793064291402 0.3522793064291402 0.345282179957485 
0.345282179957485 0.345282179957485 0.2721979191670321 0.2721979191670321 0.2721979191670321 0.2608704954718979 0.2608704954718979 0.2608704954718979 0.2734881705495851 
0.2734881705495851 0.2734881705495851 0.265070739847251 0.265070739847251 0.265070739847251 0.2508662954830724 0.2508662954830724 0.2508662954830724 0.2631242210853965 
0.2631242210853965 0.2631242210853965 -0.1550101972766214 -0.1550101972766214 -0.1550101972766214 -0.1566162551281842 -0.1566162551281842 -0.1566162551281842 0.01839358269538869 
0.01839358269538869 0.01839358269538869 0.02277921190156111 0.02277921190156111 0.02277921190156111 -0.06989319065117003 -0.06989319065117003 -0.06989319065117003 -0.05671032579580275 
-0.05671032579580275 -0.05671032579580275 -0.584798334676201 -0.584798334676201 -0.584798334676201 -0.5974059002292429 -0.5974059002292429 -0.5974059002292429 0.03810329457590363 
0.03810329457590363 0.03810329457590363 0.05582733944053012 0.05582733944053012 0.05582733944053012 0.07777134762229174 0.07777134762229174 0.07777134762229174 0.06906551162286304 
0.06906551162286304 0.06906551162286304 0.4370518706873396 0.4370518706873396 0.4370518706873396 0.439309903364028 0.439309903364028 0.439309903364028 0.443597574688563 
0.443597574688563 0.443597574688563 -0.4973943354501128 -0.4973943354501128 -0.4973943354501128 -0.5054927489525908 -0.5054927489525908 -0.5054927489525908 -0.497244296482688 
-0.497244296482688 -0.497244296482688 -0.5213855613719882 -0.5213855613719882 -0.5213855613719882 -0.5150421751544705 -0.5150421751544705 -0.5150421751544705 -0.5112395993963263 
-0.5112395993963263 -0.5112395993963263 0.1358366965462623 0.1358366965462623 0.1358366965462623 0.1311638927379198 0.1311638927379198 0.1311638927379198 0.1268797258246616 
0.1268797258246616 0.1268797258246616 -0.2564437960292288 -0.2564437960292288 -0.2564437960292288 -0.2625179142741222 -0.2625179142741222 -0.2625179142741222 -0.2673864247024682 
-0.2673864247024682 -0.2673864247024682 0.8029475466720704 0.8029475466720704 0.8029475466720704 0.805920818601245 0.805920818601245 0.805920818601245 0.2283096316880646 
0.2283096316880646 0.2283096316880646 0.2239866441948666 0.2239866441948666 0.2239866441948666 0.2163777987373304 0.2163777987373304 0.2163777987373304 -0.3241513392331672 
-0.3241513392331672 -0.3241513392331672 -0.3350787320709612 -0.3350787320709612 -0.3350787320709612 -0.3325365111963879 -0.3325365111963879 -0.3325365111963879 -0.4305969262778084 
-0.4305969262778084 -0.4305969262778084 -0.4217499975422286 -0.4217499975422286 -0.4217499975422286 -0.4178007204014615 -0.4178007204014615 -0.4178007204014615 -0.03355269026124333 
-0.03355269026124333 -0.03355269026124333 -0.04344330788290127 -0.04344330788290127 -0.04344330788290127 -0.04748683966080228 -0.04748683966080228 -0.04748683966080228 0.2328761034256104 
0.2328761034256104 0.2328761034256104 0.2361506584799038 0.2361506584799038 0.2361506584799038 0.2286562509883219 0.2286562509883219 0.2286562509883219 0.2720213340173642 
0.2720213340173642 0.2720213340173642 0.2644169619103418 0.2644169619103418 0.2644169619103418 0.2601911296572221 0.2601911296572221 0.2601911296572221 0.5994022488394537 
0.5994022488394537 0.5994022488394537 0.6005890153106445 0.6005890153106445 0.6005890153106445 0.5966754675436073 0.5966754675436073 0.5966754675436073 0.4457902206350455 
0.4457902206350455 0.4457902206350455 0.4497921543259521 0.4497921543259521 0.4497921543259521 -0.6193014432163333 -0.6193014432163333 -0.6193014432163333 -0.6146716396062477 
-0.6146716396062477 -0.6146716396062477 -0.6112945494473555 -0.6112945494473555 -0.6112945494473555 -0.2764919953556218 -0.2764919953556218 -0.2764919953556218 -0.2667381929669183 
-0.2667381929669183 -0.2667381929669183 0.4746334567578901 0.4746334567578901 0.4746334567578901 0.4692193078038358 0.4692193078038358 0.4692193078038358 0.4056456869595638 
0.4056456869595638 0.4056456869595638 0.4135448484248 0.4135448484248 0.4135448484248 -0.3446126169018549 -0.3446126169018549 -0.3446126169018549 -0.3494791988258706 
-0.3494791988258706 -0.3494791988258706 0.2055099347733862 0.2055099347733862 0.2055099347733862 0.1994413230109781 0.1994413230109781 0.1994413230109781 0.3934943941059855 
0.3934943941059855 0.3934943941059855 0.4029780995787989 0.4029780995787989 0.4029780995787989 -0.09548417974389736 -0.09548417974389736 -0.09548417974389736 -0.09159125391123321 
-0.09159125391123321 -0.09159125391123321 0.305395616337479 0.305395616337479 0.305395616337479 0.3006773090608112 0.3006773090608112 0.3006773090608112 -0.77853612280048 
-0.77853612280048 -0.77853612280048 -0.7775192617592054 -0.7775192617592054 -0.7775192617592054 -0.09112697263281645 -0.09112697263281645 -0.09112697263281645 -0.08536701997747811 
-0.08536701997747811 -0.08536701997747811 0.1709075574933239 0.1709075574933239 0.1709075574933239 0.1779504386080062 0.1779504386080062 0.1779504386080062 0.3304588589900329 
0.3304588589900329 0.3304588589900329 0.3257936502970167 0.3257936502970167 0.3257936502970167 -0.3291560102272754 -0.3291560102272754 -0.3291560102272754 -0.3183061175597618 
-0.3183061175597618 -0.3183061175597618 0.03735356130703542 0.03735356130703542 0.03735356130703542 0.03161678880823653 0.03161678880823653 0.03161678880823653 0.3711521297682414 
0.3711521297682414 0.3711521297682414 0.3660123824089115 0.3660123824089115 0.3660123824089115 -0.2088586544566054 -0.2088586544566054 -0.2088586544566054 -0.2135283275538076 
-0.2135283275538076 -0.2135283275538076 -0.2148550469525259 -0.2148550469525259 -0.2148550469525259 -0.2184645502427043 -0.2184645502427043 -0.2184645502427043 0.3185237416036526 
0.3185237416036526 0.3185237416036526 0.3123328599140424 0.3123328599140424 0.3123328599140424 -0.07508587258802467 -0.07508587258802467 -0.07508587258802467 -0.07496955519418234 
-0.07496955519418234 -0.07496955519418234 -0.6573666130075801 -0.6573666130075801 -0.6573666130075801 -0.6694517893185519 -0.6694517893185519 -0.6694517893185519 0.3219538639965468 
0.3219538639965468 0.3219538639965468 0.324495254570874 0.324495254570874 0.324495254570874 -0.3492749642429716 -0.3492749642429716 -0.3492749642429716 -0.6165900302528571 
-0.6165900302528571 -0.6165900302528571 0.4053515783318093 0.4053515783318093 0.4053515783318093 0.4017228153052012 0.4017228153052012 0.4017228153052012 -0.8482841868410895 
-0.8482841868410895 -0.8482841868410895 -0.8528126216100016 -0.8528126216100016 -0.8528126216100016 -0.1862176698205342 -0.1862176698205342 -0.1862176698205342 -0.1788789577017595 
-0.1788789577017595 -0.1788789577017595 -0.5921589732674415 -0.5921589732674415 -0.5921589732674415 -0.5935496451015134 -0.5935496451015134 -0.5935496451015134 -0.8012371694131275 
-0.8012371694131275 -0.8012371694131275 -0.7975133016431835 -0.7975133016431835 -0.7975133016431835 -0.03643106932464464 -0.03643106932464464 -0.03643106932464464 -0.04092924729669697 
-0.04092924729669697 -0.04092924729669697 0.6365308599952884 0.6365308599952884 0.6365308599952884 0.6390833687942667 0.6390833687942667 0.6390833687942667 -0.5400055945645207 
-0.5400055945645207 -0.5400055945645207 -0.5439697080710841 -0.5439697080710841 -0.5439697080710841 0.6692943284041296 0.6692943284041296 0.6692943284041296 0.6731912339199396 
0.6731912339199396 0.6731912339199396 0.5763170497772081 0.5763170497772081 0.5763170497772081 0.5694580772849716 0.5694580772849716 0.5694580772849716 0.4412324319938277 
0.4412324319938277 0.4412324319938277 0.4369165448126855 0.4369165448126855 0.4369165448126855 0.3618466831653743 0.3618466831653743 0.3618466831653743 0.3573759407683182 
0.3573759407683182 0.3573759407683182 -0.5386907792262359 -0.5386907792262359 -0.5386907792262359 0.4980015533345101 0.4980015533345101 0.4980015533345101 0.5024963001943041 
0.5024963001943041 0.5024963001943041 -0.3750052664291995 -0.3750052664291995 -0.3750052664291995 -0.3808527767998738 -0.3808527767998738 -0.3808527767998738 -0.3961251436140414 
-0.3961251436140414 -0.3961251436140414 -0.3918855818311975 -0.3918855818311975 -0.3918855818311975 -0.3837539292933015 -0.3837539292933015 -0.3837539292933015 -0.5936724000790959 
-0.5936724000790959 -0.5936724000790959 -0.1362795810813948 -0.1362795810813948 -0.1362795810813948 -0.133264548821278 -0.133264548821278 -0.133264548821278 0.7322170102576813 
0.7322170102576813 0.7322170102576813 0.7362949066833854 0.7362949066833854 0.7362949066833854 0.1901355912115273 0.1901355912115273 0.1901355912115273 0.2019332901539503 
0.2019332901539503 0.2019332901539503 -0.2610042798804254 -0.2610042798804254 -0.2610042798804254 -0.2536946759222454 -0.2536946759222454 -0.2536946759222454 0.2951815991560401 
0.2951815991560401 0.2951815991560401 0.2992481887682037 0.2992481887682037 0.2992481887682037 -0.2383240620538536 -0.2383240620538536 -0.2383240620538536 -0.2334415666525755 
-0.2334415666525755 -0.2334415666525755 0.8019267088721336 0.8019267088721336 0.8019267088721336 0.06589909314157109 0.06589909314157109 0.06589909314157109 0.06094027784892134 
0.06094027784892134 0.06094027784892134 0.1128858114233484 0.1128858114233484 0.1128858114233484 0.1122294523088761 0.1122294523088761 0.1122294523088761 -0.5798160124585062 
-0.5798160124585062 -0.5798160124585062 -0.5740924456559314 -0.5740924456559314 -0.5740924456559314 -0.5195594453176804 -0.5195594453176804 -0.5195594453176804 -0.5127051430400434 
-0.5127051430400434 -0.5127051430400434 0.2952723888370805 0.2952723888370805 0.2952723888370805 0.3042729665623138 0.3042729665623138 0.3042729665623138 0.09798673654438808 
0.09798673654438808 0.09798673654438808 0.5144983617979018 0.5144983617979018 0.5144983617979018 0.5247654445538121 0.5247654445538121 0.5247654445538121 -0.267218112420057 
-0.267218112420057 -0.267218112420057 -0.2632245163968804 -0.2632245163968804 -0.2632245163968804 -0.2764818434082355 -0.2764818434082355 -0.2764818434082355 -0.2720419902360144 
-0.2720419902360144 -0.2720419902360144 -0.4007254709422187 -0.4007254709422187 -0.4007254709422187 -0.4012315619184679 -0.4012315619184679 -0.4012315619184679 -0.1024289509265762 
-0.1024289509265762 -0.1024289509265762 -0.09845581672649124 -0.09845581672649124 -0.09845581672649124 0.2625942220625349 0.2625942220625349 0.2625942220625349 0.2574681284880648 
0.2574681284880648 0.2574681284880648 -0.5496885189150916 -0.5496885189150916 -0.5496885189150916 -0.5538300598079785 -0.5538300598079785 -0.5538300598079785 0.1146872937578554 
0.1146872937578554 0.1146872937578554 0.1109203371012168 0.1109203371012168 0.1109203371012168 0.2390026230272759 0.2390026230272759 0.2390026230272759 0.2255098562723017 
0.2255098562723017 0.2255098562723017 0.5283958916599386 0.5283958916599386 0.5283958916599386 0.5240256108395699 0.5240256108395699 0.5240256108395699 0.08353112885735522 
0.08353112885735522 0.08353112885735522 0.07918019766095274 0.07918019766095274 0.07918019766095274 -0.1957469417371576 -0.1957469417371576 -0.1957469417371576 -0.2021048528668531 
-0.2021048528668531 -0.2021048528668531 0.2990016772300099 0.2990016772300099 0.2990016772300099 0.2989816557160724 0.2989816557160724 0.2989816557160724 -0.03622552956771879 
-0.03622552956771879 -0.03622552956771879 -0.03740972670770137 -0.03740972670770137 -0.03740972670770137 -0.7091665084031142 -0.7091665084031142 -0.7091665084031142 -0.8212328916609182 
-0.8212328916609182 -0.8212328916609182 -0.1946664160829283 -0.1946664160829283 -0.1946664160829283 -0.2751551907023687 -0.2751551907023687 -0.2751551907023687 -0.263197585039178 
-0.263197585039178 -0.263197585039178 -0.04392123056165777 -0.04392123056165777 -0.04392123056165777 -0.03436127483116039 -0.03436127483116039 -0.03436127483116039 0.3460326411066228 
0.3460326411066228 0.3460326411066228 0.3371195409502254 0.3371195409502254 0.3371195409502254 0.7927665988397902 0.7927665988397902 0.7927665988397902 0.7879251981986379 
0.7879251981986379 0.7879251981986379 0.339524496703457 0.339524496703457 0.339524496703457 0.3271564231715738 0.3271564231715738 0.3271564231715738 -0.03922677194215207 
-0.03922677194215207 -0.03922677194215207 -0.0532610904120165 -0.0532610904120165 -0.0532610904120165 -0.2059119533837771 -0.2059119533837771 -0.2059119533837771 -0.1961923327980989 
-0.1961923327980989 -0.1961923327980989 -0.6033987502468456 -0.6033987502468456 -0.6033987502468456 -0.6100838121450876 -0.6100838121450876 -0.6100838121450876 -0.4712682528996019 
-0.4712682528996019 -0.4712682528996019 -0.4606753143559018 -0.4606753143559018 -0.4606753143559018 -0.2073450476595279 -0.2073450476595279 -0.2073450476595279 -0.2188863624119905 
-0.2188863624119905 -0.2188863624119905 0.2180299902492935 0.2180299902492935 0.2180299902492935 0.2574931834123558 0.2574931834123558 0.2574931834123558 -0.4942283772229198 
-0.4942283772229198 -0.4942283772229198 -0.4842760977634948 -0.4842760977634948 -0.4842760977634948 0.1659912149836565 0.1659912149836565 0.1659912149836565 0.1716692943247524 
0.1716692943247524 0.1716692943247524 0.6464917176444801 0.6464917176444801 0.6464917176444801 0.644741007234098 0.644741007234098 0.644741007234098 0.2130472756601227 
0.2130472756601227 0.2130472756601227 0.2025589174457262 0.2025589174457262 0.2025589174457262 0.02869362546912532 0.02869362546912532 0.02869362546912532 0.02053191288624281 
0.02053191288624281 0.02053191288624281 -0.1354400370991093 -0.1354400370991093 -0.1354400370991093 0.06561580645015089 0.06561580645015089 0.06561580645015089 0.06337261337374091 
0.06337261337374091 0.06337261337374091 0.7887283784298058 0.7887283784298058 0.7887283784298058 0.8000758818759431 0.8000758818759431 0.8000758818759431 -0.2878654448097667 
-0.2878654448097667 -0.2878654448097667 -0.2788761855060958 -0.2788761855060958 -0.2788761855060958 -0.3960357530824497 -0.3960357530824497 -0.3960357530824497 -0.3885951037727001 
-0.3885951037727001 -0.3885951037727001 -0.1272591776823532 -0.1272591776823532 -0.1272591776823532 -0.1295113250188221 -0.1295113250188221 -0.1295113250188221 -0.03033603457329216 
-0.03033603457329216 -0.03033603457329216 -0.03038590641688366 -0.03038590641688366 -0.03038590641688366 0.02080088827673851 0.02080088827673851 0.02080088827673851 0.03094661505891518 
0.03094661505891518 0.03094661505891518 0.1330244423075723 0.1330244423075723 0.1330244423075723 0.1354873211029348 0.1354873211029348 0.1354873211029348 -0.4130990619747937 
-0.4130990619747937 -0.4130990619747937 -0.3998088694782994 -0.3998088694782994 -0.3998088694782994 -0.1679984454361111 -0.1679984454361111 -0.1679984454361111 -0.1672066236592677 
-0.1672066236592677 -0.1672066236592677 -0.6534308490578415 -0.6534308490578415 -0.6534308490578415 -0.6627635833701766 -0.6627635833701766 -0.6627635833701766 0.5330088050576363 
0.5330088050576363 0.5330088050576363 0.5443852436234929 0.5443852436234929 0.5443852436234929 0.6003413178100595 0.6003413178100595 0.6003413178100595 0.5855474058138497 
0.5855474058138497 0.5855474058138497 0.2617621635960726 0.2617621635960726 0.2617621635960726 0.2554766540192905 0.2554766540192905 0.2554766540192905 0.048756981945912 
0.048756981945912 0.048756981945912 0.06149303926965616 0.06149303926965616 0.06149303926965616 -0.2930248268425837 -0.2930248268425837 -0.2930248268425837 -0.2777526413668083 
-0.2777526413668083 -0.2777526413668083 -0.4305857481834035 -0.4305857481834035 -0.4305857481834035 -0.4383950572991671 -0.4383950572991671 -0.4383950572991671 0.6707480579072829 
0.6707480579072829 0.6707480579072829 0.2150893507199403 0.2150893507199403 0.2150893507199403 -0.1871082855704671 -0.1871082855704671 -0.1871082855704671 -0.1971250981759484 
-0.1971250981759484 -0.1971250981759484 -0.6020298881516025 -0.6020298881516025 -0.6020298881516025 -0.6131153141811121 -0.6131153141811121 -0.6131153141811121 0.4843913844180291 
0.4843913844180291 0.4843913844180291 0.4958169895644484 0.4958169895644484 0.4958169895644484 0.2918391000050319 0.2918391000050319 0.2918391000050319 0.2836936178246598 
0.2836936178246598 0.2836936178246598 -0.394585183222715 -0.394585183222715 -0.394585183222715 -0.3974697761300889 -0.3974697761300889 -0.3974697761300889 -0.01728462069483916 
-0.01728462069483916 -0.01728462069483916 -0.02867610129361819 -0.02867610129361819 -0.02867610129361819 0.2504633524523108 0.2504633524523108 0.2504633524523108 0.2463717248121375 
0.2463717248121375 0.2463717248121375 -0.6034249422928228 -0.6034249422928228 -0.6034249422928228 -0.5887422949252193 -0.5887422949252193 -0.5887422949252193 0.3996889218540612 
0.3996889218540612 0.3996889218540612 0.4082148295997377 0.4082148295997377 0.4082148295997377 -0.8292998217521665 -0.8292998217521665 -0.8292998217521665 -0.8282626523126392 
-0.8282626523126392 -0.8282626523126392 0.1251434113510522 0.1251434113510522 0.1251434113510522 0.1161070649616409 0.1161070649616409 0.1161070649616409 0.5180305999021213 
0.5180305999021213 0.5180305999021213 0.5143060772870657 0.5143060772870657 0.5143060772870657 -0.297502356377703 -0.297502356377703 -0.297502356377703 -0.3118576862019571 
-0.3118576862019571 -0.3118576862019571 -0.2392148002902955 -0.2392148002902955 -0.2392148002902955 -0.2476086294508418 -0.2476086294508418 -0.2476086294508418 -0.629510394181839 
-0.629510394181839 -0.629510394181839 -0.6269824646384732 -0.6269824646384732 -0.6269824646384732 -0.1988049909237615 -0.1988049909237615 -0.1988049909237615 -0.2160225476594259 
-0.2160225476594259 -0.2160225476594259 -0.6662372203966103 -0.6662372203966103 -0.6662372203966103 -0.6633649513946986 -0.6633649513946986 -0.6633649513946986 0.6291298076641986 
0.6291298076641986 0.6291298076641986 0.6122996615422147 0.6122996615422147 0.6122996615422147 0.07302755952146334 0.07302755952146334 0.07302755952146334 0.06069310944622044 
0.06069310944622044 0.06069310944622044 -0.4962365912609504 -0.4962365912609504 -0.4962365912609504 -0.5098348351159594 -0.5098348351159594 -0.5098348351159594 -0.5527526076415499 
-0.5527526076415499 -0.5527526076415499 -0.5422882526876921 -0.5422882526876921 -0.5422882526876921 0.2793900709356226 0.2793900709356226 0.2793900709356226 0.2893256148008862 
0.2893256148008862 0.2893256148008862 0.4883171779935005 0.4883171779935005 0.4883171779935005 0.4755999414811645 0.4755999414811645 0.4755999414811645 0.2303271630496939 
0.2303271630496939 0.2303271630496939 0.22307511851522 0.22307511851522 0.22307511851522 -0.02586419484430189 -0.02586419484430189 -0.02586419484430189 -0.04086234336328481 
-0.04086234336328481 -0.04086234336328481 0.1175672082030015 0.1175672082030015 0.1175672082030015 0.1100305052823295 0.1100305052823295 0.1100305052823295 0.1105888921938968 
0.1105888921938968 0.1105888921938968 0.1158397620738978 0.1158397620738978 0.1158397620738978 -0.8050519387760451 -0.8050519387760451 -0.8050519387760451 -0.807591619469244 
-0.807591619469244 -0.807591619469244 -0.8123569348896726 -0.8123569348896726 -0.8123569348896726 -0.4190782393533702 -0.4190782393533702 -0.4190782393533702 -0.3820219353966979 
-0.3820219353966979 -0.3820219353966979 0.08636826055156267 0.08636826055156267 0.08636826055156267 -0.2665217904554452 -0.2665217904554452 -0.2665217904554452 -0.2590784742586625 
-0.2590784742586625 -0.2590784742586625 -0.2586046602995563 -0.2586046602995563 -0.2586046602995563 -0.1069528059796672 -0.1069528059796672 -0.1069528059796672 -0.1118744844146235 
-0.1118744844146235 -0.1118744844146235 -0.1053435491857461 -0.1053435491857461 -0.1053435491857461 -0.7589908578824887 -0.7589908578824887 -0.7589908578824887 -0.7550876750743249 
-0.7550876750743249 -0.7550876750743249 -0.753522537181528 -0.753522537181528 -0.753522537181528 -0.07978262393428452 -0.07978262393428452 -0.07978262393428452 -0.07100311898234735 
-0.07100311898234735 -0.07100311898234735 -0.06493812587257056 -0.06493812587257056 -0.06493812587257056 0.2998095109063165 0.2998095109063165 0.2998095109063165 -0.09092698425776544 
-0.09092698425776544 -0.09092698425776544 -0.09747340788225667 -0.09747340788225667 -0.09747340788225667 -0.1024421380535184 -0.1024421380535184 -0.1024421380535184 0.3979923506496854 
0.3979923506496854 0.3979923506496854 0.4034194767186526 0.4034194767186526 0.4034194767186526 0.4017790641025515 0.4017790641025515 0.4017790641025515 -0.1528007210854622 
-0.1528007210854622 -0.1528007210854622 -0.1603110715439739 -0.1603110715439739 -0.1603110715439739 -0.1715048088151326 -0.1715048088151326 -0.1715048088151326 -0.02544763576098852 
-0.02544763576098852 -0.02544763576098852 -0.01479031809537293 -0.01479031809537293 -0.01479031809537293 -0.006185055285517037 -0.006185055285517037 -0.006185055285517037 -0.1046339167764374 
-0.1046339167764374 -0.1046339167764374 -0.09373669038630118 -0.09373669038630118 -0.09373669038630118 -0.08830201986187826 -0.08830201986187826 -0.08830201986187826 -0.3876956064283521 
-0.3876956064283521 -0.3876956064283521 -0.4074397684395664 -0.4074397684395664 -0.4074397684395664 -0.4043098104732503 -0.4043098104732503 -0.4043098104732503 0.0589777919371039 
0.0589777919371039 0.0589777919371039 0.05204780257629681 0.05204780257629681 0.05204780257629681 0.04843524902309718 0.04843524902309718 0.04843524902309718 -0.6518713290377788 
-0.6518713290377788 -0.6518713290377788 -0.647499551884996 -0.647499551884996 -0.647499551884996 -0.648170791348478 -0.648170791348478 -0.648170791348478 -0.1299462428215362 
-0.1299462428215362 -0.1299462428215362 -0.1356295324604067 -0.1356295324604067 -0.1356295324604067 -0.1372501313585053 -0.1372501313585053 -0.1372501313585053 0.0185178984752879 
0.0185178984752879 0.0185178984752879 0.01592009303711196 0.01592009303711196 0.01592009303711196 0.004596441432735525 0.004596441432735525 0.004596441432735525 -0.4496691588960855 
-0.4496691588960855 -0.4496691588960855 -0.4463954209788932 -0.4463954209788932 -0.4463954209788932 -0.4421042923580788 -0.4421042923580788 -0.4421042923580788 0.1468596905554172 
0.1468596905554172 0.1468596905554172 0.1483462292836228 0.1483462292836228 0.1483462292836228 0.1446394182380411 0.1446394182380411 0.1446394182380411 0.1361601459625856 
0.1361601459625856 0.1361601459625856 0.1407770348496916 0.1407770348496916 0.1407770348496916 0.1452979654433281 0.1452979654433281 0.1452979654433281 0.3506221900796475 
0.3506221900796475 0.3506221900796475 0.3575646213898499 0.3575646213898499 0.3575646213898499 0.3577936979854761 0.3577936979854761 0.3577936979854761 0.7008211610513864 
0.7008211610513864 0.7008211610513864 0.705170994522893 0.705170994522893 0.705170994522893 0.7096570015525461 0.7096570015525461 0.7096570015525461 -0.5465576909248292 
-0.5465576909248292 -0.5465576909248292 -0.7164000657306606 -0.7164000657306606 -0.7164000657306606 -0.7940295705459453 -0.7940295705459453 -0.7940295705459453 0.422414772556756 
0.422414772556756 0.422414772556756 0.4259598044593436 0.4259598044593436 0.4259598044593436 0.4306864985839863 0.4306864985839863 0.4306864985839863 -0.385434651104432 
-0.385434651104432 -0.385434651104432 -0.3950260277758448 -0.3950260277758448 -0.3950260277758448 -0.4001590275555444 -0.4001590275555444 -0.4001590275555444 -0.06303899773782098 
-0.06303899773782098 -0.06303899773782098 -0.05563119818049429 -0.05563119818049429 -0.05563119818049429 -0.05141089660273758 -0.05141089660273758 -0.05141089660273758 -0.04662841292804881 
-0.04662841292804881 -0.04662841292804881 -0.05659889468576071 -0.05659889468576071 -0.05659889468576071 -0.06096752526578501 -0.06096752526578501 -0.06096752526578501 -0.1119801221705699 