Title = Triangle100
FileType = Solution
Variables = q
Zone T = Triangle100
ZoneType = FETriangle
Nodes = 99072
Elements = 33024
DataPacking = Block
StrandID = 13
SolutionTime = 1.2
0.1056078889801237 0.1056078889801237 0.1056078889801237 0.1027954654219844 0.1027954654219844 0.1027954654219844 0.1012068416340524 0.1012068416340524 0.1012068416340524 0.01148619974762899 
0.01148619974762899 0.01148619974762899 0.2004378604696192 0.2004378604696192 0.2004378604696192 0.1825824917206887 0.1825824917206887 0.1825824917206887 0.1864023936846048 
0.1864023936846048 0.1864023936846048 -0.2415802611191658 -0.2415802611191658 -0.2415802611191658 -0.2436297857350754 -0.2436297857350754 -0.2436297857350754 0.4803383285658316 
0.4803383285658316 0.4803383285658316 0.4785132366738175 0.4785132366738175 0.4785132366738175 0.349043923309145 0.349043923309145 0.349043923309145 0.348133852559017 
0.348133852559017 0.348133852559017 -0.1241384892978909 -0.1241384892978909 -0.1241384892978909 -0.1263309532565057 -0.1263309532565057 -0.1263309532565057 -0.1362109236572782 
-0.1362109236572782 -0.1362109236572782 -0.2204017686411898 -0.2204017686411898 -0.2204017686411898 0.3415274240079041 0.3415274240079041 0.3415274240079041 0.339839238382397 
0.339839238382397 0.339839238382397 0.2385265088617185 0.2385265088617185 0.2385265088617185 0.2351481782729948 0.2351481782729948 0.2351481782729948 0.2201175015386398 
0.2201175015386398 0.2201175015386398 0.4444304689752913 0.4444304689752913 0.4444304689752913 0.4423703692242428 0.4423703692242428 0.4423703692242428 -0.2352973036772675 
-0.2352973036772675 -0.2352973036772675 -0.2355710622824308 -0.2355710622824308 -0.2355710622824308 -0.2500845119104048 -0.2500845119104048 -0.2500845119104048 -0.2552889172926017 
-0.2552889172926017 -0.2552889172926017 0.1307165142988193 0.1307165142988193 0.1307165142988193 -0.02369676070571539 -0.02369676070571539 -0.02369676070571539 -0.4117919174778223 
-0.4117919174778223 -0.4117919174778223 -0.4133400174775664 -0.4133400174775664 -0.4133400174775664 -0.4155215205452862 -0.4155215205452862 -0.4155215205452862 0.4574023924398759 
0.4574023924398759 0.4574023924398759 0.4553957108129635 0.4553957108129635 0.4553957108129635 0.4538394567357245 0.4538394567357245 0.4538394567357245 -0.5671923918316468 
-0.5671923918316468 -0.5671923918316468 -0.566469074652161 -0.566469074652161 -0.566469074652161 -0.5747993888340274 -0.5747993888340274 -0.5747993888340274 0.341800607516723 
0.341800607516723 0.341800607516723 0.3441511414339127 0.3441511414339127 0.3441511414339127 0.3463475432878234 0.3463475432878234 0.3463475432878234 -0.2697710732021291 
-0.2697710732021291 -0.2697710732021291 -0.2679407441266821 -0.2679407441266821 -0.2679407441266821 -0.267736594958657 -0.267736594958657 -0.267736594958657 0.04370568510435661 
0.04370568510435661 0.04370568510435661 0.04196748490935862 0.04196748490935862 0.04196748490935862 0.03992964469046849 0.03992964469046849 0.03992964469046849 0.4008080953082818 
0.4008080953082818 0.4008080953082818 0.3990598931222563 0.3990598931222563 0.3990598931222563 0.4003136928854063 0.4003136928854063 0.4003136928854063 0.511406424002548 
0.511406424002548 0.511406424002548 0.5089385370527365 0.5089385370527365 0.5089385370527365 -0.5161756314155633 -0.5161756314155633 -0.5161756314155633 -0.5227036392723771 
-0.5227036392723771 -0.5227036392723771 -0.3634867320128727 -0.3634867320128727 -0.3634867320128727 -0.3622362737659477 -0.3622362737659477 -0.3622362737659477 0.1835934145360182 
0.1835934145360182 0.1835934145360182 0.1649831303169425 0.1649831303169425 0.1649831303169425 -0.2548513394244771 -0.2548513394244771 -0.2548513394244771 -0.261291837597952 
-0.261291837597952 -0.261291837597952 0.1202193089002157 0.1202193089002157 0.1202193089002157 0.1194947241218492 0.1194947241218492 0.1194947241218492 -0.5313135530608608 
-0.5313135530608608 -0.5313135530608608 -0.5295580094040555 -0.5295580094040555 -0.5295580094040555 0.1379464555018567 0.1379464555018567 0.1379464555018567 0.1011440138426547 
0.1011440138426547 0.1011440138426547 -0.1182874213355725 -0.1182874213355725 -0.1182874213355725 -0.120361407155738 -0.120361407155738 -0.120361407155738 -0.2510320107700858 
-0.2510320107700858 -0.2510320107700858 -0.2473999325427119 -0.2473999325427119 -0.2473999325427119 0.2488063510065985 0.2488063510065985 0.2488063510065985 0.2468524730707339 
0.2468524730707339 0.2468524730707339 -0.1048609827066984 -0.1048609827066984 -0.1048609827066984 -0.1085017617171899 -0.1085017617171899 -0.1085017617171899 -0.3729058760930051 
-0.3729058760930051 -0.3729058760930051 -0.3712106549958529 -0.3712106549958529 -0.3712106549958529 -0.5637590957052223 -0.5637590957052223 -0.5637590957052223 -0.5619737092527378 
-0.5619737092527378 -0.5619737092527378 -0.3782356049620204 -0.3782356049620204 -0.3782356049620204 -0.3795873596034709 -0.3795873596034709 -0.3795873596034709 -0.02356400626418171 
-0.02356400626418171 -0.02356400626418171 -0.02187950124348098 -0.02187950124348098 -0.02187950124348098 0.2423214912287864 0.2423214912287864 0.2423214912287864 0.2328150823838832 
0.2328150823838832 0.2328150823838832 -0.2298592775934572 -0.2298592775934572 -0.2298592775934572 -0.2340095000783341 -0.2340095000783341 -0.2340095000783341 0.1293090556299234 
0.1293090556299234 0.1293090556299234 0.1273653014711447 0.1273653014711447 0.1273653014711447 0.1998565937284293 0.1998565937284293 0.1998565937284293 0.2763874523875837 
0.2763874523875837 0.2763874523875837 0.4216760971877383 0.4216760971877383 0.4216760971877383 0.4897426484314278 0.4897426484314278 0.4897426484314278 0.4859323052245951 
0.4859323052245951 0.4859323052245951 0.3451107711911284 0.3451107711911284 0.3451107711911284 0.3407247949005086 0.3407247949005086 0.3407247949005086 -0.06941665809134168 
-0.06941665809134168 -0.06941665809134168 -0.07604216062907856 -0.07604216062907856 -0.07604216062907856 0.515258986655065 0.515258986655065 0.515258986655065 0.5111380607782607 
0.5111380607782607 0.5111380607782607 -0.1347430114774931 -0.1347430114774931 -0.1347430114774931 -0.1307170530555886 -0.1307170530555886 -0.1307170530555886 -0.5843739089858624 
-0.5843739089858624 -0.5843739089858624 -0.5812216985144034 -0.5812216985144034 -0.5812216985144034 0.5111765677794977 0.5111765677794977 0.5111765677794977 0.5082360272058013 
0.5082360272058013 0.5082360272058013 0.1134563078806735 0.1134563078806735 0.1134563078806735 0.1087694953671252 0.1087694953671252 0.1087694953671252 0.4670104664021371 
0.4670104664021371 0.4670104664021371 0.4580777492554498 0.4580777492554498 0.4580777492554498 -0.2539342130734712 -0.2539342130734712 -0.2539342130734712 -0.2471327476473151 
-0.2471327476473151 -0.2471327476473151 0.2589156807172124 0.2589156807172124 0.2589156807172124 0.2861140921029506 0.2861140921029506 0.2861140921029506 -0.3380389427638118 
-0.3380389427638118 -0.3380389427638118 -0.309450949229102 -0.309450949229102 -0.309450949229102 -0.3938235293594597 -0.3938235293594597 -0.3938235293594597 -0.3880643889512898 
-0.3880643889512898 -0.3880643889512898 -0.2440853798185019 -0.2440853798185019 -0.2440853798185019 -0.2490034531613996 -0.2490034531613996 -0.2490034531613996 -0.3287368103833418 
-0.3287368103833418 -0.3287368103833418 -0.2736628227855314 -0.2736628227855314 -0.2736628227855314 0.3973186001292045 0.3973186001292045 0.3973186001292045 0.3923415955475774 
0.3923415955475774 0.3923415955475774 0.1840280817365311 0.1840280817365311 0.1840280817365311 0.1851782299612999 0.1851782299612999 0.1851782299612999 0.1870911075388102 
0.1870911075388102 0.1870911075388102 -0.4786466666792275 -0.4786466666792275 -0.4786466666792275 -0.4294155860497234 -0.4294155860497234 -0.4294155860497234 -0.3337287761719306 
-0.3337287761719306 -0.3337287761719306 -0.5806917577274919 -0.5806917577274919 -0.5806917577274919 -0.5780978177298575 -0.5780978177298575 -0.5780978177298575 -0.5765448882257327 
-0.5765448882257327 -0.5765448882257327 0.0573800225823006 0.0573800225823006 0.0573800225823006 0.05542690946615009 0.05542690946615009 0.05542690946615009 0.05363730040343593 
0.05363730040343593 0.05363730040343593 -0.4717340595077473 -0.4717340595077473 -0.4717340595077473 -0.4741884391881964 -0.4741884391881964 -0.4741884391881964 -0.4762371425005657 
-0.4762371425005657 -0.4762371425005657 0.3377387048369211 0.3377387048369211 0.3377387048369211 0.3385242257205672 0.3385242257205672 0.3385242257205672 0.09526798941415739 
0.09526798941415739 0.09526798941415739 0.09348661357775326 0.09348661357775326 0.09348661357775326 0.09039680379988105 0.09039680379988105 0.09039680379988105 -0.1351915887700887 
-0.1351915887700887 -0.1351915887700887 -0.1405289692100798 -0.1405289692100798 -0.1405289692100798 -0.1408747251777724 -0.1408747251777724 -0.1408747251777724 -0.216484662395063 
-0.216484662395063 -0.216484662395063 -0.1880101483335212 -0.1880101483335212 -0.1880101483335212 -0.1914006679782394 -0.1914006679782394 -0.1914006679782394 0.1715578006916378 
0.1715578006916378 0.1715578006916378 0.002297595613989748 0.002297595613989748 0.002297595613989748 -0.01703320172288533 -0.01703320172288533 -0.01703320172288533 -0.2632308430781883 
-0.2632308430781883 -0.2632308430781883 -0.2608152934014388 -0.2608152934014388 -0.2608152934014388 -0.260782443180618 -0.260782443180618 -0.260782443180618 0.4151148095977649 
0.4151148095977649 0.4151148095977649 0.3956481479110877 0.3956481479110877 0.3956481479110877 0.3971885244203859 0.3971885244203859 0.3971885244203859 0.250655477960204 
0.250655477960204 0.250655477960204 0.250720581599957 0.250720581599957 0.250720581599957 0.2490176381935993 0.2490176381935993 0.2490176381935993 0.1882840445639233 
0.1882840445639233 0.1882840445639233 0.1900865424636881 0.1900865424636881 0.1900865424636881 -0.4000671479476849 -0.4000671479476849 -0.4000671479476849 -0.4239873386909921 
-0.4239873386909921 -0.4239873386909921 -0.4392218565474964 -0.4392218565474964 -0.4392218565474964 -0.1152399111802389 -0.1152399111802389 -0.1152399111802389 -0.1113052857415441 
-0.1113052857415441 -0.1113052857415441 0.1991677682638041 0.1991677682638041 0.1991677682638041 0.1968944862051414 0.1968944862051414 0.1968944862051414 0.1701437291321173 
0.1701437291321173 0.1701437291321173 0.1730068265762156 0.1730068265762156 0.1730068265762156 -0.1436795402687768 -0.1436795402687768 -0.1436795402687768 -0.1456253973119365 
-0.1456253973119365 -0.1456253973119365 0.4495389316411618 0.4495389316411618 0.4495389316411618 0.4469229437058649 0.4469229437058649 0.4469229437058649 0.1660370960960857 
0.1660370960960857 0.1660370960960857 0.1778413097896407 0.1778413097896407 0.1778413097896407 -0.3987421571111724 -0.3987421571111724 -0.3987421571111724 -0.3968511741584716 
-0.3968511741584716 -0.3968511741584716 0.4914502746052881 0.4914502746052881 0.4914502746052881 0.4894879109432175 0.4894879109432175 0.4894879109432175 -0.3259381692145132 
-0.3259381692145132 -0.3259381692145132 -0.3251873711388817 -0.3251873711388817 -0.3251873711388817 0.2800002851285748 0.2800002851285748 0.2800002851285748 0.3051936155280726 
0.3051936155280726 0.3051936155280726 -0.2920471138275326 -0.2920471138275326 -0.2920471138275326 -0.2896095928292133 -0.2896095928292133 -0.2896095928292133 0.1395568390384171 
0.1395568390384171 0.1395568390384171 0.13751304611525 0.13751304611525 0.13751304611525 -0.1140744061026417 -0.1140744061026417 -0.1140744061026417 -0.07935650750719189 
-0.07935650750719189 -0.07935650750719189 -0.3075219679419559 -0.3075219679419559 -0.3075219679419559 -0.334294983612512 -0.334294983612512 -0.334294983612512 0.5190771710633639 
0.5190771710633639 0.5190771710633639 0.51692381425628 0.51692381425628 0.51692381425628 -0.4519139011172932 -0.4519139011172932 -0.4519139011172932 -0.4538667934271658 
-0.4538667934271658 -0.4538667934271658 -0.4540442259896802 -0.4540442259896802 -0.4540442259896802 -0.4557215338600773 -0.4557215338600773 -0.4557215338600773 0.132765893489603 
0.132765893489603 0.132765893489603 0.130320390190645 0.130320390190645 0.130320390190645 -0.3933090815235752 -0.3933090815235752 -0.3933090815235752 -0.3950668199392277 
-0.3950668199392277 -0.3950668199392277 -0.2740571858333175 -0.2740571858333175 -0.2740571858333175 -0.2796193137938023 -0.2796193137938023 -0.2796193137938023 0.1347884594420433 
0.1347884594420433 0.1347884594420433 0.1359772562891721 0.1359772562891721 0.1359772562891721 -0.3841517496884853 -0.3841517496884853 -0.3841517496884853 -0.3828023398293133 
-0.3828023398293133 -0.3828023398293133 0.5329875921713927 0.5329875921713927 0.5329875921713927 0.5315011081293897 0.5315011081293897 0.5315011081293897 -0.3570729339533892 
-0.3570729339533892 -0.3570729339533892 -0.3592733923479073 -0.3592733923479073 -0.3592733923479073 -0.4133516384869539 -0.4133516384869539 -0.4133516384869539 -0.3879932613098878 
-0.3879932613098878 -0.3879932613098878 -0.6091229587586645 -0.6091229587586645 -0.6091229587586645 -0.6085796486391589 -0.6085796486391589 -0.6085796486391589 -0.3353899014032409 
-0.3353899014032409 -0.3353899014032409 -0.3340697247682436 -0.3340697247682436 -0.3340697247682436 -0.01536540259843146 -0.01536540259843146 -0.01536540259843146 -0.01730654548793176 
-0.01730654548793176 -0.01730654548793176 0.3147195887149443 0.3147195887149443 0.3147195887149443 0.2876769276667328 0.2876769276667328 0.2876769276667328 -0.5735607409264607 
-0.5735607409264607 -0.5735607409264607 -0.5633321266767664 -0.5633321266767664 -0.5633321266767664 0.5730877756824604 0.5730877756824604 0.5730877756824604 0.5978389234481526 
0.5978389234481526 0.5978389234481526 0.240473118093132 0.240473118093132 0.240473118093132 0.238092698841551 0.238092698841551 0.238092698841551 0.4824788171600844 
0.4824788171600844 0.4824788171600844 0.4841815988156788 0.4841815988156788 0.4841815988156788 0.5151458858268612 0.5151458858268612 0.5151458858268612 0.5132945873679204 
0.5132945873679204 0.5132945873679204 -0.5758031952006613 -0.5758031952006613 -0.5758031952006613 0.2105999113983991 0.2105999113983991 0.2105999113983991 0.2126557919164974 
0.2126557919164974 0.2126557919164974 -0.5202780036622094 -0.5202780036622094 -0.5202780036622094 -0.5226049150751606 -0.5226049150751606 -0.5226049150751606 -0.5292335826469688 
-0.5292335826469688 -0.5292335826469688 -0.5275034964154716 -0.5275034964154716 -0.5275034964154716 -0.3321019022273502 -0.3321019022273502 -0.3321019022273502 -0.3308461217098027 
-0.3308461217098027 -0.3308461217098027 0.3073701016163332 0.3073701016163332 0.3073701016163332 0.3096557456937091 0.3096557456937091 0.3096557456937091 0.3095462923242251 
0.3095462923242251 0.3095462923242251 0.3115331840215974 0.3115331840215974 0.3115331840215974 -0.285521205371714 -0.285521205371714 -0.285521205371714 -0.2805106026921767 
-0.2805106026921767 -0.2805106026921767 -0.3949095047624361 -0.3949095047624361 -0.3949095047624361 -0.3059554873689668 -0.3059554873689668 -0.3059554873689668 0.1229307898994035 
0.1229307898994035 0.1229307898994035 0.1246212730822573 0.1246212730822573 0.1246212730822573 -0.4037016559301825 -0.4037016559301825 -0.4037016559301825 -0.4083681836368427 
-0.4083681836368427 -0.4083681836368427 0.3366528901452189 0.3366528901452189 0.3366528901452189 0.005536155908057326 0.005536155908057326 0.005536155908057326 0.02410451194416676 
0.02410451194416676 0.02410451194416676 0.411514603922751 0.411514603922751 0.411514603922751 0.4111672890751342 0.4111672890751342 0.4111672890751342 -0.2420807766093864 
-0.2420807766093864 -0.2420807766093864 -0.2395989316104702 -0.2395989316104702 -0.2395989316104702 -0.2201981070614817 -0.2201981070614817 -0.2201981070614817 -0.2173350921643487 
-0.2173350921643487 -0.2173350921643487 0.1236803554095382 0.1236803554095382 0.1236803554095382 0.1273414697723601 0.1273414697723601 0.1273414697723601 0.4052813940303406 
0.4052813940303406 0.4052813940303406 0.215676141194409 0.215676141194409 0.215676141194409 0.2194782038003218 0.2194782038003218 0.2194782038003218 0.2295319126438485 
0.2295319126438485 0.2295319126438485 0.2310955384677836 0.2310955384677836 0.2310955384677836 -0.4760270477120299 -0.4760270477120299 -0.4760270477120299 -0.4749690929744426 
-0.4749690929744426 -0.4749690929744426 -0.5043860857724739 -0.5043860857724739 -0.5043860857724739 -0.522207241011905 -0.522207241011905 -0.522207241011905 -0.4021343591511453 
-0.4021343591511453 -0.4021343591511453 -0.4004258377298043 -0.4004258377298043 -0.4004258377298043 0.473409087150949 0.473409087150949 0.473409087150949 0.4712308124484916 
0.4712308124484916 0.4712308124484916 -0.2336298819396025 -0.2336298819396025 -0.2336298819396025 -0.2356043839595395 -0.2356043839595395 -0.2356043839595395 0.410525359535726 
0.410525359535726 0.410525359535726 0.4090141037445827 0.4090141037445827 0.4090141037445827 0.3405681069006906 0.3405681069006906 0.3405681069006906 0.2746931711630272 
0.2746931711630272 0.2746931711630272 0.2213511796504702 0.2213511796504702 0.2213511796504702 0.219428378150659 0.219428378150659 0.219428378150659 0.03582908732876489 
0.03582908732876489 0.03582908732876489 0.03410604365947499 0.03410604365947499 0.03410604365947499 -0.07736790471123543 -0.07736790471123543 -0.07736790471123543 -0.08276139003987666 
-0.08276139003987666 -0.08276139003987666 -0.2282708467766522 -0.2282708467766522 -0.2282708467766522 -0.2303596129495372 -0.2303596129495372 -0.2303596129495372 -0.01591575029248238 
-0.01591575029248238 -0.01591575029248238 -0.01660769405699863 -0.01660769405699863 -0.01660769405699863 -0.2957504815354854 -0.2957504815354854 -0.2957504815354854 -0.3462002420468122 
-0.3462002420468122 -0.3462002420468122 -0.08139831375693629 -0.08139831375693629 -0.08139831375693629 -0.4790868122851249 -0.4790868122851249 -0.4790868122851249 -0.4741525797333022 
-0.4741525797333022 -0.4741525797333022 -0.3835237406029844 -0.3835237406029844 -0.3835237406029844 -0.3794423151756113 -0.3794423151756113 -0.3794423151756113 0.5085833302983718 
0.5085833302983718 0.5085833302983718 0.5048327937182009 0.5048327937182009 0.5048327937182009 0.3369183904519734 0.3369183904519734 0.3369183904519734 0.3336150497612845 
0.3336150497612845 0.3336150497612845 0.1422378949563493 0.1422378949563493 0.1422378949563493 0.1363501092916439 0.1363501092916439 0.1363501092916439 0.3493332478319 
0.3493332478319 0.3493332478319 0.3423278230080625 0.3423278230080625 0.3423278230080625 -0.2267885018573623 -0.2267885018573623 -0.2267885018573623 -0.1290919746262436 
-0.1290919746262436 -0.1290919746262436 -0.2521896184420223 -0.2521896184420223 -0.2521896184420223 -0.2553261414569093 -0.2553261414569093 -0.2553261414569093 -0.5601049603819783 
-0.5601049603819783 -0.5601049603819783 -0.5557388087716599 -0.5557388087716599 -0.5557388087716599 -0.4352218351297897 -0.4352218351297897 -0.4352218351297897 -0.4482789412560174 
-0.4482789412560174 -0.4482789412560174 -0.2603383761005174 -0.2603383761005174 -0.2603383761005174 -0.2455601288285525 -0.2455601288285525 -0.2455601288285525 -0.2107059899759451 
-0.2107059899759451 -0.2107059899759451 -0.2064924716548839 -0.2064924716548839 -0.2064924716548839 0.2772994416072194 0.2772994416072194 0.2772994416072194 0.365425596401672 
0.365425596401672 0.365425596401672 0.2709515734677166 0.2709515734677166 0.2709515734677166 0.2710486169957424 0.2710486169957424 0.2710486169957424 0.08928932219290647 
0.08928932219290647 0.08928932219290647 0.08488500281049227 0.08488500281049227 0.08488500281049227 -0.3240549896725495 -0.3240549896725495 -0.3240549896725495 -0.3126203740267607 
-0.3126203740267607 -0.3126203740267607 -0.4180529555806468 -0.4180529555806468 -0.4180529555806468 0.3867527783878495 0.3867527783878495 0.3867527783878495 0.3844595444356725 
0.3844595444356725 0.3844595444356725 0.3322188548964378 0.3322188548964378 0.3322188548964378 0.3369132313486496 0.3369132313486496 0.3369132313486496 -0.4366647965766559 
-0.4366647965766559 -0.4366647965766559 -0.387051394478509 -0.387051394478509 -0.387051394478509 -0.1676342229562102 -0.1676342229562102 -0.1676342229562102 -0.1645464808818132 
-0.1645464808818132 -0.1645464808818132 0.2901057970118101 0.2901057970118101 0.2901057970118101 0.3033527172012344 0.3033527172012344 0.3033527172012344 -0.377787380133949 
-0.377787380133949 -0.377787380133949 -0.3772971228416966 -0.3772971228416966 -0.3772971228416966 -0.3575862770799528 -0.3575862770799528 -0.3575862770799528 -0.3538764074232658 
-0.3538764074232658 -0.3538764074232658 0.4171400202316551 0.4171400202316551 0.4171400202316551 0.4178802259686711 0.4178802259686711 0.4178802259686711 -0.2254467387999806 
-0.2254467387999806 -0.2254467387999806 -0.2024463721301598 -0.2024463721301598 -0.2024463721301598 -0.0655411193579588 -0.0655411193579588 -0.0655411193579588 0.02044752834513595 
0.02044752834513595 0.02044752834513595 -0.2723303508925727 -0.2723303508925727 -0.2723303508925727 -0.2760949119052769 -0.2760949119052769 -0.2760949119052769 0.2218212731390128 
0.2218212731390128 0.2218212731390128 0.2265461304898782 0.2265461304898782 0.2265461304898782 0.2518788565417665 0.2518788565417665 0.2518788565417665 0.2457226452038229 
0.2457226452038229 0.2457226452038229 0.4731176321829145 0.4731176321829145 0.4731176321829145 0.4703928984462538 0.4703928984462538 0.4703928984462538 0.3778465551037888 
0.3778465551037888 0.3778465551037888 0.3820658265297197 0.3820658265297197 0.3820658265297197 -0.1346771366752536 -0.1346771366752536 -0.1346771366752536 -0.1157834221102827 
-0.1157834221102827 -0.1157834221102827 -0.4228715986186815 -0.4228715986186815 -0.4228715986186815 -0.4982619434787302 -0.4982619434787302 -0.4982619434787302 0.376433918127154 
0.376433918127154 0.376433918127154 0.3767186347237854 0.3767186347237854 0.3767186347237854 -0.4393326172325645 -0.4393326172325645 -0.4393326172325645 -0.4433329114849436 
-0.4433329114849436 -0.4433329114849436 -0.2526026167801594 -0.2526026167801594 -0.2526026167801594 -0.2573326180298027 -0.2573326180298027 -0.2573326180298027 0.4563730213756375 
0.4563730213756375 0.4563730213756375 0.4663913290131608 0.4663913290131608 0.4663913290131608 0.4858561803165805 0.4858561803165805 0.4858561803165805 0.4824595407082082 
0.4824595407082082 0.4824595407082082 -0.1643679997821525 -0.1643679997821525 -0.1643679997821525 -0.1653548558142801 -0.1653548558142801 -0.1653548558142801 -0.3647547136280589 
-0.3647547136280589 -0.3647547136280589 -0.3693667962738195 -0.3693667962738195 -0.3693667962738195 0.1644881534496557 0.1644881534496557 0.1644881534496557 0.105239191083908 
0.105239191083908 0.105239191083908 -0.2519620489279347 -0.2519620489279347 -0.2519620489279347 -0.2459941987032408 -0.2459941987032408 -0.2459941987032408 0.1674643456547574 
0.1674643456547574 0.1674643456547574 0.1712178760555362 0.1712178760555362 0.1712178760555362 -0.3480211919259844 -0.3480211919259844 -0.3480211919259844 -0.3474308758269225 
-0.3474308758269225 -0.3474308758269225 0.05288045747804494 0.05288045747804494 0.05288045747804494 0.04911972173920054 0.04911972173920054 0.04911972173920054 0.5731498848855654 
0.5731498848855654 0.5731498848855654 0.5582855671955226 0.5582855671955226 0.5582855671955226 0.1167613186586307 0.1167613186586307 0.1167613186586307 -0.1198609700119288 
-0.1198609700119288 -0.1198609700119288 0.2058063994035769 0.2058063994035769 0.2058063994035769 0.2045892981172698 0.2045892981172698 0.2045892981172698 -0.2649232325160792 
-0.2649232325160792 -0.2649232325160792 -0.2778710048018542 -0.2778710048018542 -0.2778710048018542 -0.07042539993704822 -0.07042539993704822 -0.07042539993704822 -0.0881133955590061 
-0.0881133955590061 -0.0881133955590061 -0.2849760915963333 -0.2849760915963333 -0.2849760915963333 -0.336832989454553 -0.336832989454553 -0.336832989454553 0.2638889620137868 
0.2638889620137868 0.2638889620137868 0.2572137208567861 0.2572137208567861 0.2572137208567861 0.3934030529323364 0.3934030529323364 0.3934030529323364 0.3817094366904468 
0.3817094366904468 0.3817094366904468 -0.2101662469278328 -0.2101662469278328 -0.2101662469278328 -0.2150417449918519 -0.2150417449918519 -0.2150417449918519 -0.2318107068817034 
-0.2318107068817034 -0.2318107068817034 -0.227138265960026 -0.227138265960026 -0.227138265960026 0.4807171629413911 0.4807171629413911 0.4807171629413911 0.4848413642795895 
0.4848413642795895 0.4848413642795895 0.2050850291909569 0.2050850291909569 0.2050850291909569 0.2010539814940893 0.2010539814940893 0.2010539814940893 0.4601876363415548 
0.4601876363415548 0.4601876363415548 0.4569434299481535 0.4569434299481535 0.4569434299481535 0.3552509100532807 0.3552509100532807 0.3552509100532807 0.3506682336328073 
0.3506682336328073 0.3506682336328073 0.4091426108562347 0.4091426108562347 0.4091426108562347 0.4026166190868182 0.4026166190868182 0.4026166190868182 0.3952972256438156 
0.3952972256438156 0.3952972256438156 0.3967350143519129 0.3967350143519129 0.3967350143519129 -0.3377415182680768 -0.3377415182680768 -0.3377415182680768 -0.3394527217478995 
-0.3394527217478995 -0.3394527217478995 -0.3417110031674061 -0.3417110031674061 -0.3417110031674061 -0.2173310042630189 -0.2173310042630189 -0.2173310042630189 -0.2111599710426511 
-0.2111599710426511 -0.2111599710426511 -0.1972863515339666 -0.1972863515339666 -0.1972863515339666 -0.4649541104813822 -0.4649541104813822 -0.4649541104813822 -0.4591986038199111 
-0.4591986038199111 -0.4591986038199111 -0.4480147223059999 -0.4480147223059999 -0.4480147223059999 -0.1587681989980257 -0.1587681989980257 -0.1587681989980257 -0.1376169431007257 
-0.1376169431007257 -0.1376169431007257 -0.06013842590623064 -0.06013842590623064 -0.06013842590623064 -0.3172031181978018 -0.3172031181978018 -0.3172031181978018 -0.3154537650602117 
-0.3154537650602117 -0.3154537650602117 -0.3145628583590574 -0.3145628583590574 -0.3145628583590574 -0.3940027338035541 -0.3940027338035541 -0.3940027338035541 -0.3899232590751922 
-0.3899232590751922 -0.3899232590751922 -0.3877288696751434 -0.3877288696751434 -0.3877288696751434 0.4891901985632681 0.4891901985632681 0.4891901985632681 0.1853928217631942 
0.1853928217631942 0.1853928217631942 0.1587790373108263 0.1587790373108263 0.1587790373108263 0.1660026173580463 0.1660026173580463 0.1660026173580463 0.165946491853143 
0.165946491853143 0.165946491853143 0.1680153296078561 0.1680153296078561 0.1680153296078561 0.1672645109032465 0.1672645109032465 0.1672645109032465 0.2239955078964486 
0.2239955078964486 0.2239955078964486 0.2228257263629931 0.2228257263629931 0.2228257263629931 -0.00769544223108118 -0.00769544223108118 -0.00769544223108118 -0.3682297817014364 
-0.3682297817014364 -0.3682297817014364 -0.362346309493641 -0.362346309493641 -0.362346309493641 -0.3409163799014328 -0.3409163799014328 -0.3409163799014328 0.02468584726970942 
0.02468584726970942 0.02468584726970942 0.1957764147126675 0.1957764147126675 0.1957764147126675 0.2170891522690744 0.2170891522690744 0.2170891522690744 -0.169794845676382 
-0.169794845676382 -0.169794845676382 -0.2400159573280811 -0.2400159573280811 -0.2400159573280811 -0.176302464506636 -0.176302464506636 -0.176302464506636 0.3847093259975547 
0.3847093259975547 0.3847093259975547 0.3818929121341791 0.3818929121341791 0.3818929121341791 0.3801852208886206 0.3801852208886206 0.3801852208886206 -0.2755902954865276 
-0.2755902954865276 -0.2755902954865276 -0.2766617705913397 -0.2766617705913397 -0.2766617705913397 -0.2934756142928737 -0.2934756142928737 -0.2934756142928737 0.2327401076145428 
0.2327401076145428 0.2327401076145428 0.2336122725518387 0.2336122725518387 0.2336122725518387 0.2528831028924519 0.2528831028924519 0.2528831028924519 -0.1863504683470794 
-0.1863504683470794 -0.1863504683470794 -0.3125093994685179 -0.3125093994685179 -0.3125093994685179 -0.3458196549443766 -0.3458196549443766 -0.3458196549443766 -0.5493111921029185 
-0.5493111921029185 -0.5493111921029185 -0.548639855883624 -0.548639855883624 -0.548639855883624 -0.5469297564608214 -0.5469297564608214 -0.5469297564608214 -0.3028799252467245 
-0.3028799252467245 -0.3028799252467245 -0.30160252698058 -0.30160252698058 -0.30160252698058 -0.3033972712501563 -0.3033972712501563 -0.3033972712501563 0.4196908221625813 
0.4196908221625813 0.4196908221625813 0.4217491725597998 0.4217491725597998 0.4217491725597998 0.4234380934866349 0.4234380934866349 0.4234380934866349 0.5102444871450131 
0.5102444871450131 0.5102444871450131 0.5131204644691483 0.5131204644691483 0.5131204644691483 0.5132323096610867 0.5132323096610867 0.5132323096610867 0.2927170668437911 
0.2927170668437911 0.2927170668437911 0.2946523578556779 0.2946523578556779 0.2946523578556779 0.2966877580638603 0.2966877580638603 0.2966877580638603 -0.373149698429945 
-0.373149698429945 -0.373149698429945 -0.3711752089522936 -0.3711752089522936 -0.3711752089522936 -0.3695733415874712 -0.3695733415874712 -0.3695733415874712 0.1784885818410302 
0.1784885818410302 0.1784885818410302 0.1800807844701132 0.1800807844701132 0.1800807844701132 0.1822119692380843 0.1822119692380843 0.1822119692380843 -0.5132647669552352 
-0.5132647669552352 -0.5132647669552352 -0.5213933779056683 -0.5213933779056683 -0.5213933779056683 -0.5230941001046906 -0.5230941001046906 -0.5230941001046906 -0.3876745062582853 
-0.3876745062582853 -0.3876745062582853 -0.385582611903186 -0.385582611903186 -0.385582611903186 -0.3836383368266555 -0.3836383368266555 -0.3836383368266555 0.3464002587870212 
0.3464002587870212 0.3464002587870212 0.3421589752573584 0.3421589752573584 0.3421589752573584 0.3403807256852383 0.3403807256852383 0.3403807256852383 -0.407551826179293 
-0.407551826179293 -0.407551826179293 -0.4068013653795235 -0.4068013653795235 -0.4068013653795235 -0.4049533105787337 -0.4049533105787337 -0.4049533105787337 -0.3325439147245506 