Title = Triangle100
FileType = Solution
Variables = q
Zone T = Triangle100
ZoneType = FETriangle
Nodes = 99072
Elements = 33024
DataPacking = Block
StrandID = 20
SolutionTime = 1.9
0.1995571685285431 0.1995571685285431 0.1995571685285431 0.1851898750713331 0.1851898750713331 0.1851898750713331 0.18728629582354 0.18728629582354 0.18728629582354 0.1513959136784719 
0.1513959136784719 0.1513959136784719 0.1841040268052544 0.1841040268052544 0.1841040268052544 0.2997586345598804 0.2997586345598804 0.2997586345598804 0.3177130160211358 
0.3177130160211358 0.3177130160211358 -0.3874499118345134 -0.3874499118345134 -0.3874499118345134 -0.3885047862960518 -0.3885047862960518 -0.3885047862960518 0.5470773901268999 
0.5470773901268999 0.5470773901268999 0.5464729703472155 0.5464729703472155 0.5464729703472155 0.4662069081934992 0.4662069081934992 0.4662069081934992 0.4676974929339128 
0.4676974929339128 0.4676974929339128 -0.1257015195789803 -0.1257015195789803 -0.1257015195789803 -0.1235743381023399 -0.1235743381023399 -0.1235743381023399 -0.1646272753685963 
-0.1646272753685963 -0.1646272753685963 -0.1742446302189192 -0.1742446302189192 -0.1742446302189192 0.4141248588470834 0.4141248588470834 0.4141248588470834 0.4211840862119479 
0.4211840862119479 0.4211840862119479 0.3857428483781092 0.3857428483781092 0.3857428483781092 0.3812237932802416 0.3812237932802416 0.3812237932802416 0.3700410483604335 
0.3700410483604335 0.3700410483604335 0.5017828350402602 0.5017828350402602 0.5017828350402602 0.506339006320635 0.506339006320635 0.506339006320635 -0.3082794784131923 
-0.3082794784131923 -0.3082794784131923 -0.2658624528466615 -0.2658624528466615 -0.2658624528466615 -0.3988499842866055 -0.3988499842866055 -0.3988499842866055 -0.4032918558816743 
-0.4032918558816743 -0.4032918558816743 0.162037209657613 0.162037209657613 0.162037209657613 0.1261825500995922 0.1261825500995922 0.1261825500995922 -0.5109419230112477 
-0.5109419230112477 -0.5109419230112477 -0.5114826184336101 -0.5114826184336101 -0.5114826184336101 -0.5128185146447333 -0.5128185146447333 -0.5128185146447333 0.5392479352708447 
0.5392479352708447 0.5392479352708447 0.5381004407926921 0.5381004407926921 0.5381004407926921 0.5372017440347336 0.5372017440347336 0.5372017440347336 -0.3849876634032585 
-0.3849876634032585 -0.3849876634032585 -0.3837619736273589 -0.3837619736273589 -0.3837619736273589 -0.3874221563413235 -0.3874221563413235 -0.3874221563413235 0.4639267735280259 
0.4639267735280259 0.4639267735280259 0.4651478244323106 0.4651478244323106 0.4651478244323106 0.4665936288919684 0.4665936288919684 0.4665936288919684 -0.1791190006160244 
-0.1791190006160244 -0.1791190006160244 -0.1779745752761483 -0.1779745752761483 -0.1779745752761483 -0.1779102519065315 -0.1779102519065315 -0.1779102519065315 -0.0508883586240676 
-0.0508883586240676 -0.0508883586240676 -0.02223246118174467 -0.02223246118174467 -0.02223246118174467 0.01102005649329518 0.01102005649329518 0.01102005649329518 0.2728452542713988 
0.2728452542713988 0.2728452542713988 0.2724941851130331 0.2724941851130331 0.2724941851130331 0.2763390455428589 0.2763390455428589 0.2763390455428589 0.5137973351956118 
0.5137973351956118 0.5137973351956118 0.540933414713583 0.540933414713583 0.540933414713583 -0.4130183062637332 -0.4130183062637332 -0.4130183062637332 -0.4110655983691641 
-0.4110655983691641 -0.4110655983691641 -0.4810730496210458 -0.4810730496210458 -0.4810730496210458 -0.480168623884877 -0.480168623884877 -0.480168623884877 0.2377662369592676 
0.2377662369592676 0.2377662369592676 0.2388971704604281 0.2388971704604281 0.2388971704604281 -0.1700565529703465 -0.1700565529703465 -0.1700565529703465 -0.1743130899778807 
-0.1743130899778807 -0.1743130899778807 0.2007210640999602 0.2007210640999602 0.2007210640999602 0.214943640678043 0.214943640678043 0.214943640678043 -0.3520546123751556 
-0.3520546123751556 -0.3520546123751556 -0.3508889628900168 -0.3508889628900168 -0.3508889628900168 0.07463835294563155 0.07463835294563155 0.07463835294563155 0.02658101258857128 
0.02658101258857128 0.02658101258857128 -0.2317912133400653 -0.2317912133400653 -0.2317912133400653 -0.2313348878402015 -0.2313348878402015 -0.2313348878402015 -0.3889008549124602 
-0.3889008549124602 -0.3889008549124602 -0.3738812924543323 -0.3738812924543323 -0.3738812924543323 0.2455998850539216 0.2455998850539216 0.2455998850539216 0.2478301693346562 
0.2478301693346562 0.2478301693346562 -0.08357009585127798 -0.08357009585127798 -0.08357009585127798 -0.08150880358495971 -0.08150880358495971 -0.08150880358495971 -0.2536516159026636 
-0.2536516159026636 -0.2536516159026636 -0.2525739222837361 -0.2525739222837361 -0.2525739222837361 -0.3727187860483066 -0.3727187860483066 -0.3727187860483066 -0.3715342908092211 
-0.3715342908092211 -0.3715342908092211 -0.2939018320243495 -0.2939018320243495 -0.2939018320243495 -0.2898105767317851 -0.2898105767317851 -0.2898105767317851 0.1001883583928927 
0.1001883583928927 0.1001883583928927 0.09814797595519049 0.09814797595519049 0.09814797595519049 0.3850521757904645 0.3850521757904645 0.3850521757904645 0.3822439751472458 
0.3822439751472458 0.3822439751472458 -0.2089093921314029 -0.2089093921314029 -0.2089093921314029 -0.209517690654168 -0.209517690654168 -0.209517690654168 0.1178358316982775 
0.1178358316982775 0.1178358316982775 0.1200391039399962 0.1200391039399962 0.1200391039399962 0.1852716938156874 0.1852716938156874 0.1852716938156874 0.2037330013535631 
0.2037330013535631 0.2037330013535631 0.514597246867762 0.514597246867762 0.514597246867762 0.5400752063900427 0.5400752063900427 0.5400752063900427 0.5477741692879431 
0.5477741692879431 0.5477741692879431 0.438275525066491 0.438275525066491 0.438275525066491 0.4412395364978453 0.4412395364978453 0.4412395364978453 -0.02990240555438605 
-0.02990240555438605 -0.02990240555438605 -0.04897587452424452 -0.04897587452424452 -0.04897587452424452 0.4567307082051221 0.4567307082051221 0.4567307082051221 0.4562995033947486 
0.4562995033947486 0.4562995033947486 -0.1120783166936986 -0.1120783166936986 -0.1120783166936986 -0.1164608689300448 -0.1164608689300448 -0.1164608689300448 -0.3897059210886206 
-0.3897059210886206 -0.3897059210886206 -0.3913229193967976 -0.3913229193967976 -0.3913229193967976 0.5311817704622599 0.5311817704622599 0.5311817704622599 0.5364473469575259 
0.5364473469575259 0.5364473469575259 0.174717940859842 0.174717940859842 0.174717940859842 0.1726469148297521 0.1726469148297521 0.1726469148297521 0.3169940059308164 
0.3169940059308164 0.3169940059308164 0.3141481278159062 0.3141481278159062 0.3141481278159062 -0.1680103872017289 -0.1680103872017289 -0.1680103872017289 -0.162971617341872 
-0.162971617341872 -0.162971617341872 0.1920409805371134 0.1920409805371134 0.1920409805371134 0.1977215844611798 0.1977215844611798 0.1977215844611798 -0.2360368181121263 
-0.2360368181121263 -0.2360368181121263 -0.2313277897768151 -0.2313277897768151 -0.2313277897768151 -0.2820443334697428 -0.2820443334697428 -0.2820443334697428 -0.2764387092842087 
-0.2764387092842087 -0.2764387092842087 -0.3733400265681384 -0.3733400265681384 -0.3733400265681384 -0.3911637496251789 -0.3911637496251789 -0.3911637496251789 -0.2323078040391721 
-0.2323078040391721 -0.2323078040391721 -0.2220136195399034 -0.2220136195399034 -0.2220136195399034 0.2849517804232738 0.2849517804232738 0.2849517804232738 0.2676234540349414 
0.2676234540349414 0.2676234540349414 0.1297980744436646 0.1297980744436646 0.1297980744436646 0.1283097294551034 0.1283097294551034 0.1283097294551034 0.12881851549305 
0.12881851549305 0.12881851549305 -0.3769188591882304 -0.3769188591882304 -0.3769188591882304 -0.3787728076436687 -0.3787728076436687 -0.3787728076436687 -0.3756796689193241 
-0.3756796689193241 -0.3756796689193241 -0.383971004152307 -0.383971004152307 -0.383971004152307 -0.3822495964284127 -0.3822495964284127 -0.3822495964284127 -0.3812157662942648 
-0.3812157662942648 -0.3812157662942648 0.03602795667394124 0.03602795667394124 0.03602795667394124 0.0348119900285021 0.0348119900285021 0.0348119900285021 0.03229578900359743 
0.03229578900359743 0.03229578900359743 -0.4183915492537689 -0.4183915492537689 -0.4183915492537689 -0.4461177395322522 -0.4461177395322522 -0.4461177395322522 -0.4413098178537908 
-0.4413098178537908 -0.4413098178537908 0.4614151689147546 0.4614151689147546 0.4614151689147546 0.4634987957831883 0.4634987957831883 0.4634987957831883 0.1836383889142895 
0.1836383889142895 0.1836383889142895 0.1852365002106501 0.1852365002106501 0.1852365002106501 0.1544961946425413 0.1544961946425413 0.1544961946425413 -0.25405678451224 
-0.25405678451224 -0.25405678451224 -0.2844952532766335 -0.2844952532766335 -0.2844952532766335 -0.2965286949052272 -0.2965286949052272 -0.2965286949052272 -0.3510200288776975 
-0.3510200288776975 -0.3510200288776975 -0.3458490182522203 -0.3458490182522203 -0.3458490182522203 -0.3449654944523505 -0.3449654944523505 -0.3449654944523505 0.2005844020289114 
0.2005844020289114 0.2005844020289114 0.1563457313025001 0.1563457313025001 0.1563457313025001 0.1564264742089562 0.1564264742089562 0.1564264742089562 -0.1759969486236066 
-0.1759969486236066 -0.1759969486236066 -0.1742059441295388 -0.1742059441295388 -0.1742059441295388 -0.174976273737338 -0.174976273737338 -0.174976273737338 0.3140441460157919 
0.3140441460157919 0.3140441460157919 0.3112035084454056 0.3112035084454056 0.3112035084454056 0.3101056443286401 0.3101056443286401 0.3101056443286401 0.3619360304801671 
0.3619360304801671 0.3619360304801671 0.3781770522864345 0.3781770522864345 0.3781770522864345 0.3777286362881536 0.3777286362881536 0.3777286362881536 0.1280419785117325 
0.1280419785117325 0.1280419785117325 0.1287402155914068 0.1287402155914068 0.1287402155914068 -0.4104440960779636 -0.4104440960779636 -0.4104440960779636 -0.4091670501461468 
-0.4091670501461468 -0.4091670501461468 -0.4082368176486609 -0.4082368176486609 -0.4082368176486609 -0.1671193591611409 -0.1671193591611409 -0.1671193591611409 -0.1320730706287821 
-0.1320730706287821 -0.1320730706287821 0.1809750178775218 0.1809750178775218 0.1809750178775218 0.1767980762717011 0.1767980762717011 0.1767980762717011 0.1263297766480528 
0.1263297766480528 0.1263297766480528 0.1514837791735877 0.1514837791735877 0.1514837791735877 -0.2267573167174936 -0.2267573167174936 -0.2267573167174936 -0.2488871527484667 
-0.2488871527484667 -0.2488871527484667 0.5228263349661364 0.5228263349661364 0.5228263349661364 0.5219316580996644 0.5219316580996644 0.5219316580996644 0.3190046994730362 
0.3190046994730362 0.3190046994730362 0.3266978493433402 0.3266978493433402 0.3266978493433402 -0.5042528527606249 -0.5042528527606249 -0.5042528527606249 -0.5030126929644355 
-0.5030126929644355 -0.5030126929644355 0.4842093051113692 0.4842093051113692 0.4842093051113692 0.4829702679691015 0.4829702679691015 0.4829702679691015 -0.4551589653287567 
-0.4551589653287567 -0.4551589653287567 -0.4551844383297868 -0.4551844383297868 -0.4551844383297868 0.2080304643938543 0.2080304643938543 0.2080304643938543 0.2149491509860217 
0.2149491509860217 0.2149491509860217 -0.2009658579826779 -0.2009658579826779 -0.2009658579826779 -0.2029498172003808 -0.2029498172003808 -0.2029498172003808 0.0893955963062682 
0.0893955963062682 0.0893955963062682 0.08768497698784845 0.08768497698784845 0.08768497698784845 -0.03398362382415351 -0.03398362382415351 -0.03398362382415351 0.06019509651476491 
0.06019509651476491 0.06019509651476491 -0.2275448065800406 -0.2275448065800406 -0.2275448065800406 -0.232888762550992 -0.232888762550992 -0.232888762550992 0.4127934923455486 
0.4127934923455486 0.4127934923455486 0.4409230134573837 0.4409230134573837 0.4409230134573837 -0.3556823837522938 -0.3556823837522938 -0.3556823837522938 -0.3511940968108558 
-0.3511940968108558 -0.3511940968108558 -0.3153561410600343 -0.3153561410600343 -0.3153561410600343 -0.3278306264887952 -0.3278306264887952 -0.3278306264887952 0.2647658301307113 
0.2647658301307113 0.2647658301307113 0.2648676151932746 0.2648676151932746 0.2648676151932746 -0.270189624770121 -0.270189624770121 -0.270189624770121 -0.2749855046921302 
-0.2749855046921302 -0.2749855046921302 -0.417744287612343 -0.417744287612343 -0.417744287612343 -0.4234026321727354 -0.4234026321727354 -0.4234026321727354 0.09524921574122454 
0.09524921574122454 0.09524921574122454 0.09413723634012727 0.09413723634012727 0.09413723634012727 -0.4942058126882254 -0.4942058126882254 -0.4942058126882254 -0.4935228669174322 
-0.4935228669174322 -0.4935228669174322 0.3532729028129587 0.3532729028129587 0.3532729028129587 0.3526227032347852 0.3526227032347852 0.3526227032347852 -0.4768765994530192 
-0.4768765994530192 -0.4768765994530192 -0.4783261191537072 -0.4783261191537072 -0.4783261191537072 -0.2920937583865548 -0.2920937583865548 -0.2920937583865548 -0.2880367598803506 
-0.2880367598803506 -0.2880367598803506 -0.4029828229606417 -0.4029828229606417 -0.4029828229606417 -0.4033936319023149 -0.4033936319023149 -0.4033936319023149 -0.4625161005338116 
-0.4625161005338116 -0.4625161005338116 -0.4615102508440301 -0.4615102508440301 -0.4615102508440301 0.1215428974774036 0.1215428974774036 0.1215428974774036 0.1237498682146866 
0.1237498682146866 0.1237498682146866 0.4148850561985821 0.4148850561985821 0.4148850561985821 0.4151026853205846 0.4151026853205846 0.4151026853205846 -0.388903201303908 
-0.388903201303908 -0.388903201303908 -0.3899820813030451 -0.3899820813030451 -0.3899820813030451 0.4246350552195364 0.4246350552195364 0.4246350552195364 0.4257033312393946 
0.4257033312393946 0.4257033312393946 0.3662424551451259 0.3662424551451259 0.3662424551451259 0.3396854514832699 0.3396854514832699 0.3396854514832699 0.361054426290506 
0.361054426290506 0.361054426290506 0.3599027095260297 0.3599027095260297 0.3599027095260297 0.5045245113427307 0.5045245113427307 0.5045245113427307 0.5193168974498104 
0.5193168974498104 0.5193168974498104 -0.3888220651961102 -0.3888220651961102 -0.3888220651961102 0.1556016439336883 0.1556016439336883 0.1556016439336883 0.1552341734592763 
0.1552341734592763 0.1552341734592763 -0.3479561830792538 -0.3479561830792538 -0.3479561830792538 -0.3541080443115611 -0.3541080443115611 -0.3541080443115611 -0.3504057109225033 
-0.3504057109225033 -0.3504057109225033 -0.3493997285952704 -0.3493997285952704 -0.3493997285952704 -0.3823930026956102 -0.3823930026956102 -0.3823930026956102 -0.3927692566841788 
-0.3927692566841788 -0.3927692566841788 0.2349630191263743 0.2349630191263743 0.2349630191263743 0.2336498223951383 0.2336498223951383 0.2336498223951383 0.3995076900789259 
0.3995076900789259 0.3995076900789259 0.3996586432275954 0.3996586432275954 0.3996586432275954 -0.2045777602773184 -0.2045777602773184 -0.2045777602773184 -0.1881579588104237 
-0.1881579588104237 -0.1881579588104237 -0.3096883847008814 -0.3096883847008814 -0.3096883847008814 -0.303136529010944 -0.303136529010944 -0.303136529010944 0.1839702666773461 
0.1839702666773461 0.1839702666773461 0.182952368645317 0.182952368645317 0.182952368645317 -0.3039579163486215 -0.3039579163486215 -0.3039579163486215 -0.3029820078661405 
-0.3029820078661405 -0.3029820078661405 0.4622930733949389 0.4622930733949389 0.4622930733949389 -0.1494211983093397 -0.1494211983093397 -0.1494211983093397 -0.1205198980647341 
-0.1205198980647341 -0.1205198980647341 0.3208451326804038 0.3208451326804038 0.3208451326804038 0.3387607772669228 0.3387607772669228 0.3387607772669228 -0.3510299240185722 
-0.3510299240185722 -0.3510299240185722 -0.3501445177551688 -0.3501445177551688 -0.3501445177551688 -0.1655087281001382 -0.1655087281001382 -0.1655087281001382 -0.1602178776925899 
-0.1602178776925899 -0.1602178776925899 0.08578461728399385 0.08578461728399385 0.08578461728399385 0.09190027916933644 0.09190027916933644 0.09190027916933644 0.3014419193959105 
0.3014419193959105 0.3014419193959105 0.2411230406465092 0.2411230406465092 0.2411230406465092 0.2927740939246564 0.2927740939246564 0.2927740939246564 0.1557801377812127 
0.1557801377812127 0.1557801377812127 0.1569825453342834 0.1569825453342834 0.1569825453342834 -0.3185719836041905 -0.3185719836041905 -0.3185719836041905 -0.3177669773199324 
-0.3177669773199324 -0.3177669773199324 -0.350911102142556 -0.350911102142556 -0.350911102142556 -0.351341903786887 -0.351341903786887 -0.351341903786887 -0.5055491415244249 
-0.5055491415244249 -0.5055491415244249 -0.5038750499480168 -0.5038750499480168 -0.5038750499480168 0.5464775181563666 0.5464775181563666 0.5464775181563666 0.5451648678751444 
0.5451648678751444 0.5451648678751444 -0.1730605540750519 -0.1730605540750519 -0.1730605540750519 -0.1728740261925645 -0.1728740261925645 -0.1728740261925645 0.2824731224582179 
0.2824731224582179 0.2824731224582179 0.2825827989443403 0.2825827989443403 0.2825827989443403 0.3011443367323898 0.3011443367323898 0.3011443367323898 0.2935997014413038 
0.2935997014413038 0.2935997014413038 0.2536084293209464 0.2536084293209464 0.2536084293209464 0.2555618156644323 0.2555618156644323 0.2555618156644323 0.16096390592806 
0.16096390592806 0.16096390592806 0.1657222582486659 0.1657222582486659 0.1657222582486659 0.07489699975181333 0.07489699975181333 0.07489699975181333 0.06234670120974481 
0.06234670120974481 0.06234670120974481 -0.1495930785880341 -0.1495930785880341 -0.1495930785880341 -0.1509597857165527 -0.1509597857165527 -0.1509597857165527 0.130581905947499 
0.130581905947499 0.130581905947499 0.08893425035384096 0.08893425035384096 0.08893425035384096 -0.4355661398728213 -0.4355661398728213 -0.4355661398728213 -0.4679987817984022 
-0.4679987817984022 -0.4679987817984022 -0.0036062826773268 -0.0036062826773268 -0.0036062826773268 -0.3894817355815511 -0.3894817355815511 -0.3894817355815511 -0.3927541432739725 
-0.3927541432739725 -0.3927541432739725 -0.2698135636163999 -0.2698135636163999 -0.2698135636163999 -0.272235002132973 -0.272235002132973 -0.272235002132973 0.5249869933038507 
0.5249869933038507 0.5249869933038507 0.5456385751118626 0.5456385751118626 0.5456385751118626 0.4428867167684563 0.4428867167684563 0.4428867167684563 0.4455858881946198 
0.4455858881946198 0.4455858881946198 0.2816609272274484 0.2816609272274484 0.2816609272274484 0.231847332973275 0.231847332973275 0.231847332973275 0.2912623924907995 
0.2912623924907995 0.2912623924907995 0.2540215350712616 0.2540215350712616 0.2540215350712616 -0.2792957868926045 -0.2792957868926045 -0.2792957868926045 -0.2548699256628602 
-0.2548699256628602 -0.2548699256628602 -0.3739249105555951 -0.3739249105555951 -0.3739249105555951 -0.3679663629043363 -0.3679663629043363 -0.3679663629043363 -0.3702307865020878 
-0.3702307865020878 -0.3702307865020878 -0.3673537124399036 -0.3673537124399036 -0.3673537124399036 -0.2992919807010436 -0.2992919807010436 -0.2992919807010436 -0.3031578745278841 
-0.3031578745278841 -0.3031578745278841 -0.1731920022644411 -0.1731920022644411 -0.1731920022644411 -0.1641737765494906 -0.1641737765494906 -0.1641737765494906 -0.1385326907496909 
-0.1385326907496909 -0.1385326907496909 -0.1329217591612187 -0.1329217591612187 -0.1329217591612187 0.2768699670474558 0.2768699670474558 0.2768699670474558 0.2851295494824183 
0.2851295494824183 0.2851295494824183 0.3755668638146602 0.3755668638146602 0.3755668638146602 0.3449061888714419 0.3449061888714419 0.3449061888714419 0.05930819096773698 
0.05930819096773698 0.05930819096773698 0.05639104794545275 0.05639104794545275 0.05639104794545275 -0.2338517160579141 -0.2338517160579141 -0.2338517160579141 -0.2343596613470881 
-0.2343596613470881 -0.2343596613470881 -0.515530512216394 -0.515530512216394 -0.515530512216394 0.4872057412300674 0.4872057412300674 0.4872057412300674 0.4901369850530893 
0.4901369850530893 0.4901369850530893 0.4547923768917445 0.4547923768917445 0.4547923768917445 0.4600526027020859 0.4600526027020859 0.4600526027020859 -0.3190066793255995 
-0.3190066793255995 -0.3190066793255995 -0.3144855135771569 -0.3144855135771569 -0.3144855135771569 -0.1100918002376246 -0.1100918002376246 -0.1100918002376246 -0.1031482112526217 
-0.1031482112526217 -0.1031482112526217 0.2042583477850229 0.2042583477850229 0.2042583477850229 0.2061858089964961 0.2061858089964961 0.2061858089964961 -0.274689283776911 
-0.274689283776911 -0.274689283776911 -0.2967113095763452 -0.2967113095763452 -0.2967113095763452 -0.2956530984123789 -0.2956530984123789 -0.2956530984123789 -0.2605431647264069 
-0.2605431647264069 -0.2605431647264069 0.5078012123852526 0.5078012123852526 0.5078012123852526 0.5134369365126887 0.5134369365126887 0.5134369365126887 -0.3477163526679601 
-0.3477163526679601 -0.3477163526679601 -0.3421952257338153 -0.3421952257338153 -0.3421952257338153 0.06282288371256008 0.06282288371256008 0.06282288371256008 0.1328799822877344 
0.1328799822877344 0.1328799822877344 -0.4160783398874429 -0.4160783398874429 -0.4160783398874429 -0.4205512660563373 -0.4205512660563373 -0.4205512660563373 0.3631914689677599 
0.3631914689677599 0.3631914689677599 0.3650265441234227 0.3650265441234227 0.3650265441234227 0.3124594594380486 0.3124594594380486 0.3124594594380486 0.2915246737335557 
0.2915246737335557 0.2915246737335557 0.5449181697095812 0.5449181697095812 0.5449181697095812 0.5474776929090177 0.5474776929090177 0.5474776929090177 0.4826277665523572 
0.4826277665523572 0.4826277665523572 0.4883800397796534 0.4883800397796534 0.4883800397796534 -0.2966694339998184 -0.2966694339998184 -0.2966694339998184 -0.2537240089252498 
-0.2537240089252498 -0.2537240089252498 -0.3578922793696487 -0.3578922793696487 -0.3578922793696487 -0.3610958737871078 -0.3610958737871078 -0.3610958737871078 0.487396829810765 
0.487396829810765 0.487396829810765 0.4855245047645061 0.4855245047645061 0.4855245047645061 -0.2972551946031575 -0.2972551946031575 -0.2972551946031575 -0.2991886646702679 
-0.2991886646702679 -0.2991886646702679 -0.3370948339444375 -0.3370948339444375 -0.3370948339444375 -0.3450723351761112 -0.3450723351761112 -0.3450723351761112 0.373132755246291 
0.373132755246291 0.373132755246291 0.3764162424699609 0.3764162424699609 0.3764162424699609 0.5561935223321722 0.5561935223321722 0.5561935223321722 0.5545614266927817 
0.5545614266927817 0.5545614266927817 -0.2035836349109091 -0.2035836349109091 -0.2035836349109091 -0.2662984120822676 -0.2662984120822676 -0.2662984120822676 -0.2488762134634853 
-0.2488762134634853 -0.2488762134634853 -0.2514724911564618 -0.2514724911564618 -0.2514724911564618 0.2942559213900128 0.2942559213900128 0.2942559213900128 0.2696249387727351 
0.2696249387727351 0.2696249387727351 -0.3718385513764401 -0.3718385513764401 -0.3718385513764401 -0.3510312225653598 -0.3510312225653598 -0.3510312225653598 0.1324400445234551 
0.1324400445234551 0.1324400445234551 0.1294325536150187 0.1294325536150187 0.1294325536150187 -0.4710326132336243 -0.4710326132336243 -0.4710326132336243 -0.4706958873293107 
-0.4706958873293107 -0.4706958873293107 0.03499354309917515 0.03499354309917515 0.03499354309917515 0.03238389557868698 0.03238389557868698 0.03238389557868698 0.3828655629472491 
0.3828655629472491 0.3828655629472491 0.3817924879372516 0.3817924879372516 0.3817924879372516 0.1138621740608363 0.1138621740608363 0.1138621740608363 0.007939736481199212 
0.007939736481199212 0.007939736481199212 0.1544653798265167 0.1544653798265167 0.1544653798265167 0.1523102419498053 0.1523102419498053 0.1523102419498053 -0.4119061942376299 
-0.4119061942376299 -0.4119061942376299 -0.4122049206609559 -0.4122049206609559 -0.4122049206609559 0.09617333092811967 0.09617333092811967 0.09617333092811967 0.05132516443789912 
0.05132516443789912 0.05132516443789912 -0.4234567270094596 -0.4234567270094596 -0.4234567270094596 -0.4228968419760793 -0.4228968419760793 -0.4228968419760793 0.3604084702535467 
0.3604084702535467 0.3604084702535467 0.3295937287139963 0.3295937287139963 0.3295937287139963 0.2695520013091384 0.2695520013091384 0.2695520013091384 0.2613754393094923 
0.2613754393094923 0.2613754393094923 -0.1540843261268161 -0.1540843261268161 -0.1540843261268161 -0.1800585083848077 -0.1800585083848077 -0.1800585083848077 -0.2684824377606006 
-0.2684824377606006 -0.2684824377606006 -0.2732904728172022 -0.2732904728172022 -0.2732904728172022 0.4478179155657265 0.4478179155657265 0.4478179155657265 0.4451794715737881 
0.4451794715737881 0.4451794715737881 0.1828170767689807 0.1828170767689807 0.1828170767689807 0.1402908233021526 0.1402908233021526 0.1402908233021526 0.5234196248867631 
0.5234196248867631 0.5234196248867631 0.5311956893511131 0.5311956893511131 0.5311956893511131 0.2878760837947116 0.2878760837947116 0.2878760837947116 0.2535998438708031 
0.2535998438708031 0.2535998438708031 0.2796370066543731 0.2796370066543731 0.2796370066543731 0.2745964046941136 0.2745964046941136 0.2745964046941136 0.2728956639855621 
0.2728956639855621 0.2728956639855621 0.2739897113824211 0.2739897113824211 0.2739897113824211 -0.4637779109846306 -0.4637779109846306 -0.4637779109846306 -0.4641689907802646 
-0.4641689907802646 -0.4641689907802646 -0.4656190673736235 -0.4656190673736235 -0.4656190673736235 -0.1415667776318454 -0.1415667776318454 -0.1415667776318454 -0.1367361501494141 
-0.1367361501494141 -0.1367361501494141 -0.1279879512048152 -0.1279879512048152 -0.1279879512048152 -0.3157815218794675 -0.3157815218794675 -0.3157815218794675 -0.3134519137292213 
-0.3134519137292213 -0.3134519137292213 -0.3122936525625103 -0.3122936525625103 -0.3122936525625103 -0.2485029772970085 -0.2485029772970085 -0.2485029772970085 -0.2492821628956609 
-0.2492821628956609 -0.2492821628956609 -0.2206039662140499 -0.2206039662140499 -0.2206039662140499 -0.4498232703083035 -0.4498232703083035 -0.4498232703083035 -0.4486903038731418 
-0.4486903038731418 -0.4486903038731418 -0.4484746423516862 -0.4484746423516862 -0.4484746423516862 -0.4835864087123341 -0.4835864087123341 -0.4835864087123341 -0.4816000600110238 
-0.4816000600110238 -0.4816000600110238 -0.4747017677777663 -0.4747017677777663 -0.4747017677777663 0.4415010427177298 0.4415010427177298 0.4415010427177298 0.1917291794565213 
0.1917291794565213 0.1917291794565213 0.1846682355397302 0.1846682355397302 0.1846682355397302 0.18420454647452 0.18420454647452 0.18420454647452 0.3022643950140156 
0.3022643950140156 0.3022643950140156 0.3023582884621859 0.3023582884621859 0.3023582884621859 0.2731298600128759 0.2731298600128759 0.2731298600128759 0.1832956708160181 
0.1832956708160181 0.1832956708160181 0.1799112240289501 0.1799112240289501 0.1799112240289501 0.1338326746145186 0.1338326746145186 0.1338326746145186 -0.2510536681948699 
-0.2510536681948699 -0.2510536681948699 -0.2471621030262759 -0.2471621030262759 -0.2471621030262759 -0.2406077781333907 -0.2406077781333907 -0.2406077781333907 0.1722219744889242 
0.1722219744889242 0.1722219744889242 0.196969312380395 0.196969312380395 0.196969312380395 0.2025445470285097 0.2025445470285097 0.2025445470285097 -0.3356863998448197 
-0.3356863998448197 -0.3356863998448197 -0.346334191458257 -0.346334191458257 -0.346334191458257 -0.3372884111873771 -0.3372884111873771 -0.3372884111873771 0.4800430799249453 
0.4800430799249453 0.4800430799249453 0.475849514368182 0.475849514368182 0.475849514368182 0.4751410781436709 0.4751410781436709 0.4751410781436709 -0.4184162410795048 
-0.4184162410795048 -0.4184162410795048 -0.4172168374996701 -0.4172168374996701 -0.4172168374996701 -0.4183223242357271 -0.4183223242357271 -0.4183223242357271 0.1899650346412586 
0.1899650346412586 0.1899650346412586 0.1887020885890272 0.1887020885890272 0.1887020885890272 0.1924240300936141 0.1924240300936141 0.1924240300936141 -0.2194668910283622 
-0.2194668910283622 -0.2194668910283622 -0.2359150583044414 -0.2359150583044414 -0.2359150583044414 -0.2417718407426855 -0.2417718407426855 -0.2417718407426855 -0.3642679651485793 
-0.3642679651485793 -0.3642679651485793 -0.3633688590963856 -0.3633688590963856 -0.3633688590963856 -0.3622080543240013 -0.3622080543240013 -0.3622080543240013 -0.2197420586085805 
-0.2197420586085805 -0.2197420586085805 -0.2102394273768495 -0.2102394273768495 -0.2102394273768495 -0.2103683243196879 -0.2103683243196879 -0.2103683243196879 0.5017949815754074 
0.5017949815754074 0.5017949815754074 0.5025437373372291 0.5025437373372291 0.5025437373372291 0.5085143765372548 0.5085143765372548 0.5085143765372548 0.404991345163782 
0.404991345163782 0.404991345163782 0.4175388073378692 0.4175388073378692 0.4175388073378692 0.4653212076199087 0.4653212076199087 0.4653212076199087 0.4286817891775109 
0.4286817891775109 0.4286817891775109 0.4298088635893471 0.4298088635893471 0.4298088635893471 0.4306914958126742 0.4306914958126742 0.4306914958126742 -0.4841585988410789 
-0.4841585988410789 -0.4841585988410789 -0.4829502748659857 -0.4829502748659857 -0.4829502748659857 -0.4819684293688984 -0.4819684293688984 -0.4819684293688984 0.1208627252061387 
0.1208627252061387 0.1208627252061387 0.1213961799350228 0.1213961799350228 0.1213961799350228 0.1222212838755744 0.1222212838755744 0.1222212838755744 -0.3470612093310588 
-0.3470612093310588 -0.3470612093310588 -0.3497499515762142 -0.3497499515762142 -0.3497499515762142 -0.3511381252616287 -0.3511381252616287 -0.3511381252616287 -0.4674932062932405 
-0.4674932062932405 -0.4674932062932405 -0.4504080651474756 -0.4504080651474756 -0.4504080651474756 -0.4506191323087338 -0.4506191323087338 -0.4506191323087338 0.2575781330935921 
0.2575781330935921 0.2575781330935921 0.2386972488059679 0.2386972488059679 0.2386972488059679 0.2387156014118212 0.2387156014118212 0.2387156014118212 -0.5077432648406781 
-0.5077432648406781 -0.5077432648406781 -0.5082862888780424 -0.5082862888780424 -0.5082862888780424 -0.5071135624160774 -0.5071135624160774 -0.5071135624160774 -0.2398682036244531 
-0.2398682036244531 -0.2398682036244531 -0.2636529975908966 -0.2636529975908966 -0.2636529975908966 -0.265777254777177 -0.265777254777177 -0.265777254777177 -0.3589266895353201 