Title = Triangle100
FileType = Solution
Variables = q
Zone T = Triangle100
ZoneType = FETriangle
Nodes = 99072
Elements = 33024
DataPacking = Block
StrandID = 17
SolutionTime = 1.6
0.168233000135792 0.168233000135792 0.168233000135792 0.1494326376604098 0.1494326376604098 0.1494326376604098 0.1516023882760732 0.1516023882760732 0.1516023882760732 0.1552169115241653 
0.1552169115241653 0.1552169115241653 0.206724840137662 0.206724840137662 0.206724840137662 0.2484504430019219 0.2484504430019219 0.2484504430019219 0.2871249052657088 
0.2871249052657088 0.2871249052657088 -0.4138618906562253 -0.4138618906562253 -0.4138618906562253 -0.4132361170466737 -0.4132361170466737 -0.4132361170466737 0.3714397714605753 
0.3714397714605753 0.3714397714605753 0.3700309405743638 0.3700309405743638 0.3700309405743638 0.5070122275588225 0.5070122275588225 0.5070122275588225 0.5234956512447382 
0.5234956512447382 0.5234956512447382 -0.09963010861839668 -0.09963010861839668 -0.09963010861839668 -0.1012077580385704 -0.1012077580385704 -0.1012077580385704 -0.1891480394338814 
-0.1891480394338814 -0.1891480394338814 -0.2027248937587655 -0.2027248937587655 -0.2027248937587655 0.3078525458978609 0.3078525458978609 0.3078525458978609 0.3231008463466393 
0.3231008463466393 0.3231008463466393 0.4339914662686719 0.4339914662686719 0.4339914662686719 0.4298712942935854 0.4298712942935854 0.4298712942935854 0.3943760258954703 
0.3943760258954703 0.3943760258954703 0.3437371010634186 0.3437371010634186 0.3437371010634186 0.3421696730956167 0.3421696730956167 0.3421696730956167 -0.2352985176409591 
-0.2352985176409591 -0.2352985176409591 -0.2022221750937178 -0.2022221750937178 -0.2022221750937178 -0.4447060654977583 -0.4447060654977583 -0.4447060654977583 -0.4522730291320659 
-0.4522730291320659 -0.4522730291320659 0.1740392920099439 0.1740392920099439 0.1740392920099439 0.1281989337569275 0.1281989337569275 0.1281989337569275 -0.4775555867356476 
-0.4775555867356476 -0.4775555867356476 -0.4480597266682052 -0.4480597266682052 -0.4480597266682052 -0.4204541676439005 -0.4204541676439005 -0.4204541676439005 0.3537544874378555 
0.3537544874378555 0.3537544874378555 0.3522156888943284 0.3522156888943284 0.3522156888943284 0.3510277119934942 0.3510277119934942 0.3510277119934942 -0.450105500925047 
-0.450105500925047 -0.450105500925047 -0.448682003201832 -0.448682003201832 -0.448682003201832 -0.4530569082854113 -0.4530569082854113 -0.4530569082854113 0.5241264980550224 
0.5241264980550224 0.5241264980550224 0.5226800160666049 0.5226800160666049 0.5226800160666049 0.523501796275371 0.523501796275371 0.523501796275371 -0.2089151723668922 
-0.2089151723668922 -0.2089151723668922 -0.2074270527737441 -0.2074270527737441 -0.2074270527737441 -0.2070323061647534 -0.2070323061647534 -0.2070323061647534 0.01559706575032959 
0.01559706575032959 0.01559706575032959 0.03050408202552359 0.03050408202552359 0.03050408202552359 0.02819434662051121 0.02819434662051121 0.02819434662051121 0.3122124623644362 
0.3122124623644362 0.3122124623644362 0.3107770569276121 0.3107770569276121 0.3107770569276121 0.3103685927090106 0.3103685927090106 0.3103685927090106 0.3954535802324553 
0.3954535802324553 0.3954535802324553 0.3935446589342239 0.3935446589342239 0.3935446589342239 -0.4825394311624001 -0.4825394311624001 -0.4825394311624001 -0.4802199029724659 
-0.4802199029724659 -0.4802199029724659 -0.5614133836166814 -0.5614133836166814 -0.5614133836166814 -0.5596235061183161 -0.5596235061183161 -0.5596235061183161 0.2586843306904915 
0.2586843306904915 0.2586843306904915 0.2593465140085634 0.2593465140085634 0.2593465140085634 -0.1984293385192125 -0.1984293385192125 -0.1984293385192125 -0.2032240655138662 
-0.2032240655138662 -0.2032240655138662 0.1528631921849619 0.1528631921849619 0.1528631921849619 0.1684782085573801 0.1684782085573801 0.1684782085573801 -0.4117751436231463 
-0.4117751436231463 -0.4117751436231463 -0.4103823386515028 -0.4103823386515028 -0.4103823386515028 0.09520997515391973 0.09520997515391973 0.09520997515391973 0.04432859961493647 
0.04432859961493647 0.04432859961493647 -0.1922885889301581 -0.1922885889301581 -0.1922885889301581 -0.1868877839393446 -0.1868877839393446 -0.1868877839393446 -0.4097660362008084 
-0.4097660362008084 -0.4097660362008084 -0.3687153365120184 -0.3687153365120184 -0.3687153365120184 0.1990598128633012 0.1990598128633012 0.1990598128633012 0.1991221548285833 
0.1991221548285833 0.1991221548285833 -0.08162364719038155 -0.08162364719038155 -0.08162364719038155 -0.08427273484296756 -0.08427273484296756 -0.08427273484296756 -0.2943929497374215 
-0.2943929497374215 -0.2943929497374215 -0.2928105986802074 -0.2928105986802074 -0.2928105986802074 -0.4360679895708263 -0.4360679895708263 -0.4360679895708263 -0.4346795372334269 
-0.4346795372334269 -0.4346795372334269 -0.2927765843918794 -0.2927765843918794 -0.2927765843918794 -0.2938883032662459 -0.2938883032662459 -0.2938883032662459 0.04111578741445449 
0.04111578741445449 0.04111578741445449 0.02644269856171755 0.02644269856171755 0.02644269856171755 0.4351909467461901 0.4351909467461901 0.4351909467461901 0.4304841033782508 
0.4304841033782508 0.4304841033782508 -0.1813955726562652 -0.1813955726562652 -0.1813955726562652 -0.1843680733532152 -0.1843680733532152 -0.1843680733532152 0.1016385055966741 
0.1016385055966741 0.1016385055966741 0.1007347334544057 0.1007347334544057 0.1007347334544057 0.2076815873911732 0.2076815873911732 0.2076815873911732 0.234845669290879 
0.234845669290879 0.234845669290879 0.3645697904999642 0.3645697904999642 0.3645697904999642 0.3787026595974632 0.3787026595974632 0.3787026595974632 0.3757586660131319 
0.3757586660131319 0.3757586660131319 0.3563588069943378 0.3563588069943378 0.3563588069943378 0.3879914472065199 0.3879914472065199 0.3879914472065199 -0.04846897351065749 
-0.04846897351065749 -0.04846897351065749 -0.05883014691262185 -0.05883014691262185 -0.05883014691262185 0.3984353262283126 0.3984353262283126 0.3984353262283126 0.3952543420700606 
0.3952543420700606 0.3952543420700606 -0.1054930152173576 -0.1054930152173576 -0.1054930152173576 -0.1031724487740727 -0.1031724487740727 -0.1031724487740727 -0.4558627300279369 
-0.4558627300279369 -0.4558627300279369 -0.4576619862224394 -0.4576619862224394 -0.4576619862224394 0.3952581243704559 0.3952581243704559 0.3952581243704559 0.3929866677980177 
0.3929866677980177 0.3929866677980177 0.1390381522820509 0.1390381522820509 0.1390381522820509 0.141493043039577 0.141493043039577 0.141493043039577 0.3695323840264186 
0.3695323840264186 0.3695323840264186 0.3663639968715727 0.3663639968715727 0.3663639968715727 -0.1960744992422231 -0.1960744992422231 -0.1960744992422231 -0.1906763126551872 
-0.1906763126551872 -0.1906763126551872 0.2190820202775048 0.2190820202775048 0.2190820202775048 0.2282185114232027 0.2282185114232027 0.2282185114232027 -0.273089083954307 
-0.273089083954307 -0.273089083954307 -0.2656194448689916 -0.2656194448689916 -0.2656194448689916 -0.3053799319464012 -0.3053799319464012 -0.3053799319464012 -0.3011933441809724 
-0.3011933441809724 -0.3011933441809724 -0.3532491924494826 -0.3532491924494826 -0.3532491924494826 -0.4110568201022042 -0.4110568201022042 -0.4110568201022042 -0.2688235384853644 
-0.2688235384853644 -0.2688235384853644 -0.2544158952671276 -0.2544158952671276 -0.2544158952671276 0.3074805804345691 0.3074805804345691 0.3074805804345691 0.3047650870025306 
0.3047650870025306 0.3047650870025306 0.1426221589559198 0.1426221589559198 0.1426221589559198 0.1434525685785524 0.1434525685785524 0.1434525685785524 0.144915088005172 
0.144915088005172 0.144915088005172 -0.4389402461474659 -0.4389402461474659 -0.4389402461474659 -0.4398530859898728 -0.4398530859898728 -0.4398530859898728 -0.4335229589967428 
-0.4335229589967428 -0.4335229589967428 -0.4492473768347116 -0.4492473768347116 -0.4492473768347116 -0.4472315000990027 -0.4472315000990027 -0.4472315000990027 -0.4460209203901676 
-0.4460209203901676 -0.4460209203901676 0.04457505401039797 0.04457505401039797 0.04457505401039797 0.04305354330371132 0.04305354330371132 0.04305354330371132 0.04161011554903307 
0.04161011554903307 0.04161011554903307 -0.3648448294133021 -0.3648448294133021 -0.3648448294133021 -0.3667306071349195 -0.3667306071349195 -0.3667306071349195 -0.3683150264466931 
-0.3683150264466931 -0.3683150264466931 0.5233336288627235 0.5233336288627235 0.5233336288627235 0.5341844897049707 0.5341844897049707 0.5341844897049707 0.1001749705317474 
0.1001749705317474 0.1001749705317474 0.1064215918471106 0.1064215918471106 0.1064215918471106 0.07892319879390038 0.07892319879390038 0.07892319879390038 -0.2212408503704222 
-0.2212408503704222 -0.2212408503704222 -0.2771600864996201 -0.2771600864996201 -0.2771600864996201 -0.3014551303359396 -0.3014551303359396 -0.3014551303359396 -0.3867317817892992 
-0.3867317817892992 -0.3867317817892992 -0.3736259340073021 -0.3736259340073021 -0.3736259340073021 -0.3735785109905028 -0.3735785109905028 -0.3735785109905028 0.2147165843710906 
0.2147165843710906 0.2147165843710906 0.1380426075506579 0.1380426075506579 0.1380426075506579 0.1419895296229182 0.1419895296229182 0.1419895296229182 -0.2034706596214634 
-0.2034706596214634 -0.2034706596214634 -0.2015710393464012 -0.2015710393464012 -0.2015710393464012 -0.201585430754199 -0.201585430754199 -0.201585430754199 0.3638251197986885 
0.3638251197986885 0.3638251197986885 0.3595301024806126 0.3595301024806126 0.3595301024806126 0.3583942012231097 0.3583942012231097 0.3583942012231097 0.3147720118683995 
0.3147720118683995 0.3147720118683995 0.3576294413050972 0.3576294413050972 0.3576294413050972 0.3601610520701757 0.3601610520701757 0.3601610520701757 0.1457824088030482 
0.1457824088030482 0.1457824088030482 0.1471732502971119 0.1471732502971119 0.1471732502971119 -0.4783966670542883 -0.4783966670542883 -0.4783966670542883 -0.4769673678951699 
-0.4769673678951699 -0.4769673678951699 -0.4759247857400593 -0.4759247857400593 -0.4759247857400593 -0.1177412000103863 -0.1177412000103863 -0.1177412000103863 -0.09215990277141078 
-0.09215990277141078 -0.09215990277141078 0.1557518331680105 0.1557518331680105 0.1557518331680105 0.1535781173932723 0.1535781173932723 0.1535781173932723 0.1319934344090201 
0.1319934344090201 0.1319934344090201 0.1348615881516483 0.1348615881516483 0.1348615881516483 -0.1819686150839024 -0.1819686150839024 -0.1819686150839024 -0.2068805805625989 
-0.2068805805625989 -0.2068805805625989 0.3476896917385169 0.3476896917385169 0.3476896917385169 0.3456942789662727 0.3456942789662727 0.3456942789662727 0.3237583348144433 
0.3237583348144433 0.3237583348144433 0.3403265919085711 0.3403265919085711 0.3403265919085711 -0.5840041226544976 -0.5840041226544976 -0.5840041226544976 -0.5831825046255901 
-0.5831825046255901 -0.5831825046255901 0.380044390792282 0.380044390792282 0.380044390792282 0.3785286037845075 0.3785286037845075 0.3785286037845075 -0.5252563003433959 
-0.5252563003433959 -0.5252563003433959 -0.5281186471992412 -0.5281186471992412 -0.5281186471992412 0.2395748530159412 0.2395748530159412 0.2395748530159412 0.2490914408372632 
0.2490914408372632 0.2490914408372632 -0.226065003380803 -0.226065003380803 -0.226065003380803 -0.2241668828661886 -0.2241668828661886 -0.2241668828661886 0.1067082416456545 
0.1067082416456545 0.1067082416456545 0.1049365331451159 0.1049365331451159 0.1049365331451159 -0.05731588004694214 -0.05731588004694214 -0.05731588004694214 0.04368859215825395 
0.04368859215825395 0.04368859215825395 -0.2616046687829559 -0.2616046687829559 -0.2616046687829559 -0.2688007547965551 -0.2688007547965551 -0.2688007547965551 0.4013901932952784 
0.4013901932952784 0.4013901932952784 0.3997225780606897 0.3997225780606897 0.3997225780606897 -0.349638427082152 -0.349638427082152 -0.349638427082152 -0.3511524808031937 
-0.3511524808031937 -0.3511524808031937 -0.3517849884530794 -0.3517849884530794 -0.3517849884530794 -0.3528597043943179 -0.3528597043943179 -0.3528597043943179 0.2312222162540464 
0.2312222162540464 0.2312222162540464 0.2353461666473282 0.2353461666473282 0.2353461666473282 -0.3069902838898452 -0.3069902838898452 -0.3069902838898452 -0.3070761514175544 
-0.3070761514175544 -0.3070761514175544 -0.472059302186447 -0.472059302186447 -0.472059302186447 -0.4872807031515274 -0.4872807031515274 -0.4872807031515274 0.1046961367326301 
0.1046961367326301 0.1046961367326301 0.1055126318384883 0.1055126318384883 0.1055126318384883 -0.567597250783435 -0.567597250783435 -0.567597250783435 -0.5701963001138779 
-0.5701963001138779 -0.5701963001138779 0.412326800967152 0.412326800967152 0.412326800967152 0.4111704295808288 0.4111704295808288 0.4111704295808288 -0.5570437140083748 
-0.5570437140083748 -0.5570437140083748 -0.5586449922263161 -0.5586449922263161 -0.5586449922263161 -0.3387746072319818 -0.3387746072319818 -0.3387746072319818 -0.3327598615893843 
-0.3327598615893843 -0.3327598615893843 -0.4715121146290718 -0.4715121146290718 -0.4715121146290718 -0.4719812629458379 -0.4719812629458379 -0.4719812629458379 -0.5402788861746984 
-0.5402788861746984 -0.5402788861746984 -0.5377933133320218 -0.5377933133320218 -0.5377933133320218 0.08199939717455075 0.08199939717455075 0.08199939717455075 0.08731223707349846 
0.08731223707349846 0.08731223707349846 0.4825324956071766 0.4825324956071766 0.4825324956071766 0.4811918301734481 0.4811918301734481 0.4811918301734481 -0.4548616719382604 
-0.4548616719382604 -0.4548616719382604 -0.4559934390151689 -0.4559934390151689 -0.4559934390151689 0.4966904651834402 0.4966904651834402 0.4966904651834402 0.4980117874983172 
0.4980117874983172 0.4980117874983172 0.3366334791317676 0.3366334791317676 0.3366334791317676 0.2705508538508647 0.2705508538508647 0.2705508538508647 0.4199435455891848 
0.4199435455891848 0.4199435455891848 0.4186591239620697 0.4186591239620697 0.4186591239620697 0.3983265450327671 0.3983265450327671 0.3983265450327671 0.3968952378496245 
0.3968952378496245 0.3968952378496245 -0.454686355923612 -0.454686355923612 -0.454686355923612 0.1635423565168039 0.1635423565168039 0.1635423565168039 0.1650216880593159 
0.1650216880593159 0.1650216880593159 -0.4023898822982414 -0.4023898822982414 -0.4023898822982414 -0.4041486242015198 -0.4041486242015198 -0.4041486242015198 -0.4095539576489569 
-0.4095539576489569 -0.4095539576489569 -0.4082045268662777 -0.4082045268662777 -0.4082045268662777 -0.2784653216840709 -0.2784653216840709 -0.2784653216840709 -0.287195593484334 
-0.287195593484334 -0.287195593484334 0.2382094859489771 0.2382094859489771 0.2382094859489771 0.2398863167647898 0.2398863167647898 0.2398863167647898 0.3368899245904871 
0.3368899245904871 0.3368899245904871 0.3310331554211924 0.3310331554211924 0.3310331554211924 -0.2213212707329639 -0.2213212707329639 -0.2213212707329639 -0.2172919489812972 
-0.2172919489812972 -0.2172919489812972 -0.3568125543055076 -0.3568125543055076 -0.3568125543055076 -0.3441608340819518 -0.3441608340819518 -0.3441608340819518 0.1355531889417519 
0.1355531889417519 0.1355531889417519 0.1336333366133464 0.1336333366133464 0.1336333366133464 -0.3505706013115423 -0.3505706013115423 -0.3505706013115423 -0.3497765870343137 
-0.3497765870343137 -0.3497765870343137 0.5331775145446321 0.5331775145446321 0.5331775145446321 -0.1220550136256828 -0.1220550136256828 -0.1220550136256828 -0.08755467969849695 
-0.08755467969849695 -0.08755467969849695 0.3184798558368528 0.3184798558368528 0.3184798558368528 0.3180856839733091 0.3180856839733091 0.3180856839733091 -0.3174478639017878 
-0.3174478639017878 -0.3174478639017878 -0.3190213243313108 -0.3190213243313108 -0.3190213243313108 -0.1706143816976278 -0.1706143816976278 -0.1706143816976278 -0.1683440739781135 
-0.1683440739781135 -0.1683440739781135 0.0958679824871925 0.0958679824871925 0.0958679824871925 0.09875616119211783 0.09875616119211783 0.09875616119211783 0.3138248576782766 
0.3138248576782766 0.3138248576782766 0.1736824850806797 0.1736824850806797 0.1736824850806797 0.2058306625357178 0.2058306625357178 0.2058306625357178 0.1801237421350872 
0.1801237421350872 0.1801237421350872 0.1815382355053296 0.1815382355053296 0.1815382355053296 -0.3711531335941329 -0.3711531335941329 -0.3711531335941329 -0.3698110296041961 
-0.3698110296041961 -0.3698110296041961 -0.4095062610531151 -0.4095062610531151 -0.4095062610531151 -0.4106566240048604 -0.4106566240048604 -0.4106566240048604 -0.5596318498773563 
-0.5596318498773563 -0.5596318498773563 -0.5470340756609234 -0.5470340756609234 -0.5470340756609234 0.3661093513932596 0.3661093513932596 0.3661093513932596 0.3644284823919659 
0.3644284823919659 0.3644284823919659 -0.1817140805588015 -0.1817140805588015 -0.1817140805588015 -0.1830713733489314 -0.1830713733489314 -0.1830713733489314 0.3193184330308404 
0.3193184330308404 0.3193184330308404 0.3180916625830141 0.3180916625830141 0.3180916625830141 0.3416894852162041 0.3416894852162041 0.3416894852162041 0.3267379219298418 
0.3267379219298418 0.3267379219298418 0.1944834760889161 0.1944834760889161 0.1944834760889161 0.1962863545661924 0.1962863545661924 0.1962863545661924 0.1173652694187111 
0.1173652694187111 0.1173652694187111 0.1290958856464901 0.1290958856464901 0.1290958856464901 0.01216363030591479 0.01216363030591479 0.01216363030591479 -0.01289029201741965 
-0.01289029201741965 -0.01289029201741965 -0.1755388666436297 -0.1755388666436297 -0.1755388666436297 -0.1771911490817369 -0.1771911490817369 -0.1771911490817369 0.08930072925294753 
0.08930072925294753 0.08930072925294753 0.04228181729804482 0.04228181729804482 0.04228181729804482 -0.5070686173597342 -0.5070686173597342 -0.5070686173597342 -0.5330427321671456 
-0.5330427321671456 -0.5330427321671456 -0.0352311361029235 -0.0352311361029235 -0.0352311361029235 -0.3705355338986208 -0.3705355338986208 -0.3705355338986208 -0.3667271528626397 
-0.3667271528626397 -0.3667271528626397 -0.2968795808480321 -0.2968795808480321 -0.2968795808480321 -0.2937039978868681 -0.2937039978868681 -0.2937039978868681 0.3932721109773993 
0.3932721109773993 0.3932721109773993 0.3903728236641896 0.3903728236641896 0.3903728236641896 0.4135852305943725 0.4135852305943725 0.4135852305943725 0.4427730441184841 
0.4427730441184841 0.4427730441184841 0.2598625215234263 0.2598625215234263 0.2598625215234263 0.1858314416120428 0.1858314416120428 0.1858314416120428 0.2708611013919068 
0.2708611013919068 0.2708611013919068 0.2650910929212021 0.2650910929212021 0.2650910929212021 -0.3066185870474085 -0.3066185870474085 -0.3066185870474085 -0.262270313930646 
-0.262270313930646 -0.262270313930646 -0.347810680165668 -0.347810680165668 -0.347810680165668 -0.3269751575475048 -0.3269751575475048 -0.3269751575475048 -0.4331481616678343 
-0.4331481616678343 -0.4331481616678343 -0.4297639367765252 -0.4297639367765252 -0.4297639367765252 -0.3481037981022995 -0.3481037981022995 -0.3481037981022995 -0.3525731182744349 
-0.3525731182744349 -0.3525731182744349 -0.2015234861884625 -0.2015234861884625 -0.2015234861884625 -0.1916545864403218 -0.1916545864403218 -0.1916545864403218 -0.162249024271827 
-0.162249024271827 -0.162249024271827 -0.1570138609295378 -0.1570138609295378 -0.1570138609295378 0.3139050210231487 0.3139050210231487 0.3139050210231487 0.3294497488400153 
0.3294497488400153 0.3294497488400153 0.308562848526344 0.308562848526344 0.308562848526344 0.256340570619184 0.256340570619184 0.256340570619184 0.06926252819200229 
0.06926252819200229 0.06926252819200229 0.06586144769763719 0.06586144769763719 0.06586144769763719 -0.2705064797728708 -0.2705064797728708 -0.2705064797728708 -0.270048339453007 
-0.270048339453007 -0.270048339453007 -0.4428983686071264 -0.4428983686071264 -0.4428983686071264 0.4341968041597802 0.4341968041597802 0.4341968041597802 0.5022221582755311 
0.5022221582755311 0.5022221582755311 0.500508331028836 0.500508331028836 0.500508331028836 0.5160910815675384 0.5160910815675384 0.5160910815675384 -0.3701562529975214 
-0.3701562529975214 -0.3701562529975214 -0.3623361186805849 -0.3623361186805849 -0.3623361186805849 -0.1291769899582033 -0.1291769899582033 -0.1291769899582033 -0.1235681540943111 
-0.1235681540943111 -0.1235681540943111 0.2359004339423869 0.2359004339423869 0.2359004339423869 0.2390819615258455 0.2390819615258455 0.2390819615258455 -0.2923645953483781 
-0.2923645953483781 -0.2923645953483781 -0.2919375452805762 -0.2919375452805762 -0.2919375452805762 -0.2769743672875904 -0.2769743672875904 -0.2769743672875904 -0.2742401629226096 
-0.2742401629226096 -0.2742401629226096 0.3497305071543367 0.3497305071543367 0.3497305071543367 0.4051386303797731 0.4051386303797731 0.4051386303797731 -0.3877668154397367 
-0.3877668154397367 -0.3877668154397367 -0.3772174000453906 -0.3772174000453906 -0.3772174000453906 0.02597794818067019 0.02597794818067019 0.02597794818067019 0.1341238600267221 
0.1341238600267221 0.1341238600267221 -0.4666487046049482 -0.4666487046049482 -0.4666487046049482 -0.4791216582833525 -0.4791216582833525 -0.4791216582833525 0.3666893387695405 
0.3666893387695405 0.3666893387695405 0.3635088313351005 0.3635088313351005 0.3635088313351005 0.2345408519058761 0.2345408519058761 0.2345408519058761 0.2154838992663491 
0.2154838992663491 0.2154838992663491 0.3658658235246517 0.3658658235246517 0.3658658235246517 0.3637637341396487 0.3637637341396487 0.3637637341396487 0.4696703935460406 
0.4696703935460406 0.4696703935460406 0.5021566351631032 0.5021566351631032 0.5021566351631032 -0.3052725338430915 -0.3052725338430915 -0.3052725338430915 -0.2043515070028882 
-0.2043515070028882 -0.2043515070028882 -0.4158409565260717 -0.4158409565260717 -0.4158409565260717 -0.4214843361004568 -0.4214843361004568 -0.4214843361004568 0.5418719275336659 
0.5418719275336659 0.5418719275336659 0.5145164466597055 0.5145164466597055 0.5145164466597055 -0.3427484178827013 -0.3427484178827013 -0.3427484178827013 -0.3459373667608429 
-0.3459373667608429 -0.3459373667608429 -0.2571394669180952 -0.2571394669180952 -0.2571394669180952 -0.273652807384098 -0.273652807384098 -0.273652807384098 0.4339541364998016 
0.4339541364998016 0.4339541364998016 0.4381559165950941 0.4381559165950941 0.4381559165950941 0.3756982464829022 0.3756982464829022 0.3756982464829022 0.3730764455166933 
0.3730764455166933 0.3730764455166933 -0.1461134849094295 -0.1461134849094295 -0.1461134849094295 -0.2137302792928135 -0.2137302792928135 -0.2137302792928135 -0.2873270981842704 
-0.2873270981842704 -0.2873270981842704 -0.2911206470629989 -0.2911206470629989 -0.2911206470629989 0.3207327255865097 0.3207327255865097 0.3207327255865097 0.2540620793533905 
0.2540620793533905 0.2540620793533905 -0.355823500571819 -0.355823500571819 -0.355823500571819 -0.3107069597951975 -0.3107069597951975 -0.3107069597951975 0.1302442921941562 
0.1302442921941562 0.1302442921941562 0.1329181710611867 0.1329181710611867 0.1329181710611867 -0.5503905581053267 -0.5503905581053267 -0.5503905581053267 -0.550299151009932 
-0.550299151009932 -0.550299151009932 0.04112785918916643 0.04112785918916643 0.04112785918916643 0.03821743536646971 0.03821743536646971 0.03821743536646971 0.4478289125081472 
0.4478289125081472 0.4478289125081472 0.4462996005171977 0.4462996005171977 0.4462996005171977 0.1213021304291745 0.1213021304291745 0.1213021304291745 -0.05949464655377108 
-0.05949464655377108 -0.05949464655377108 0.1723785421799306 0.1723785421799306 0.1723785421799306 0.1698579294680572 0.1698579294680572 0.1698579294680572 -0.4732083554355324 
-0.4732083554355324 -0.4732083554355324 -0.4780862120519499 -0.4780862120519499 -0.4780862120519499 0.07517631447452733 0.07517631447452733 0.07517631447452733 -0.02398988183098685 
-0.02398988183098685 -0.02398988183098685 -0.4921585895410386 -0.4921585895410386 -0.4921585895410386 -0.4936971931399765 -0.4936971931399765 -0.4936971931399765 0.3045833551022913 
0.3045833551022913 0.3045833551022913 0.2555103342446223 0.2555103342446223 0.2555103342446223 0.3059835426941531 0.3059835426941531 0.3059835426941531 0.3007576583858342 
0.3007576583858342 0.3007576583858342 -0.1628168407398059 -0.1628168407398059 -0.1628168407398059 -0.1671822294532501 -0.1671822294532501 -0.1671822294532501 -0.2032161533935959 
-0.2032161533935959 -0.2032161533935959 -0.2076792895891671 -0.2076792895891671 -0.2076792895891671 0.3717591359854935 0.3717591359854935 0.3717591359854935 0.3749459003199234 
0.3749459003199234 0.3749459003199234 0.1617713765893188 0.1617713765893188 0.1617713765893188 0.1557676840649944 0.1557676840649944 0.1557676840649944 0.355885330591931 
0.355885330591931 0.355885330591931 0.3533881035493984 0.3533881035493984 0.3533881035493984 0.2749707280204053 0.2749707280204053 0.2749707280204053 0.271494173198382 
0.271494173198382 0.271494173198382 0.319914159394379 0.319914159394379 0.319914159394379 0.3170081043292126 0.3170081043292126 0.3170081043292126 0.315843642090449 
0.315843642090449 0.315843642090449 0.3174798490508366 0.3174798490508366 0.3174798490508366 -0.5390014298500445 -0.5390014298500445 -0.5390014298500445 -0.5340813332118007 
-0.5340813332118007 -0.5340813332118007 -0.5352004362386668 -0.5352004362386668 -0.5352004362386668 -0.1665143644636998 -0.1665143644636998 -0.1665143644636998 -0.1612919285769537 
-0.1612919285769537 -0.1612919285769537 -0.1505758440398056 -0.1505758440398056 -0.1505758440398056 -0.3675259929142906 -0.3675259929142906 -0.3675259929142906 -0.3648878170139767 
-0.3648878170139767 -0.3648878170139767 -0.3637299633774491 -0.3637299633774491 -0.3637299633774491 -0.2729751486170232 -0.2729751486170232 -0.2729751486170232 -0.2729012609267413 
-0.2729012609267413 -0.2729012609267413 -0.2175346378971478 -0.2175346378971478 -0.2175346378971478 -0.5212411550301075 -0.5212411550301075 -0.5212411550301075 -0.5201167206788266 
-0.5201167206788266 -0.5201167206788266 -0.5215950062424762 -0.5215950062424762 -0.5215950062424762 -0.3550972265675337 -0.3550972265675337 -0.3550972265675337 -0.3746244310506604 
-0.3746244310506604 -0.3746244310506604 -0.3455919989615919 -0.3455919989615919 -0.3455919989615919 0.3783063277702124 0.3783063277702124 0.3783063277702124 0.2082783452413923 
0.2082783452413923 0.2082783452413923 0.1972348614516746 0.1972348614516746 0.1972348614516746 0.1972594636021146 0.1972594636021146 0.1972594636021146 0.2778444089776213 
0.2778444089776213 0.2778444089776213 0.2736228368421181 0.2736228368421181 0.2736228368421181 0.2174658488564546 0.2174658488564546 0.2174658488564546 0.2095146912504466 
0.2095146912504466 0.2095146912504466 0.2057172756444616 0.2057172756444616 0.2057172756444616 0.1362942303754942 0.1362942303754942 0.1362942303754942 -0.2894446656647711 
-0.2894446656647711 -0.2894446656647711 -0.2856615868994014 -0.2856615868994014 -0.2856615868994014 -0.2784207149461757 -0.2784207149461757 -0.2784207149461757 0.1777572872072803 
0.1777572872072803 0.1777572872072803 0.2194803001000639 0.2194803001000639 0.2194803001000639 0.2275438562776878 0.2275438562776878 0.2275438562776878 -0.3625128998249366 
-0.3625128998249366 -0.3625128998249366 -0.3870907087265487 -0.3870907087265487 -0.3870907087265487 -0.3554798608159665 -0.3554798608159665 -0.3554798608159665 0.3818583740975308 
0.3818583740975308 0.3818583740975308 0.3704501066267183 0.3704501066267183 0.3704501066267183 0.3796647175512264 0.3796647175512264 0.3796647175512264 -0.4817552722009116 
-0.4817552722009116 -0.4817552722009116 -0.4806388698955785 -0.4806388698955785 -0.4806388698955785 -0.485975317932097 -0.485975317932097 -0.485975317932097 0.216726770983778 
0.216726770983778 0.216726770983778 0.2154413340714564 0.2154413340714564 0.2154413340714564 0.2215270196411854 0.2215270196411854 0.2215270196411854 -0.2424741387311228 
-0.2424741387311228 -0.2424741387311228 -0.2717960561003391 -0.2717960561003391 -0.2717960561003391 -0.2802557575562517 -0.2802557575562517 -0.2802557575562517 -0.4261227702899305 
-0.4261227702899305 -0.4261227702899305 -0.4250852076247639 -0.4250852076247639 -0.4250852076247639 -0.423722829737283 -0.423722829737283 -0.423722829737283 -0.2344729881578327 
-0.2344729881578327 -0.2344729881578327 -0.2335381192213785 -0.2335381192213785 -0.2335381192213785 -0.2349378277294887 -0.2349378277294887 -0.2349378277294887 0.3300189029755912 
0.3300189029755912 0.3300189029755912 0.3296538005368319 0.3296538005368319 0.3296538005368319 0.334130480627861 0.334130480627861 0.334130480627861 0.3945778424178263 
0.3945778424178263 0.3945778424178263 0.3967943341950675 0.3967943341950675 0.3967943341950675 0.3968708694742008 0.3968708694742008 0.3968708694742008 0.473594599651679 
0.473594599651679 0.473594599651679 0.4736103379135309 0.4736103379135309 0.4736103379135309 0.471841901913053 0.471841901913053 0.471841901913053 -0.5187529831756061 
-0.5187529831756061 -0.5187529831756061 -0.5209130650584258 -0.5209130650584258 -0.5209130650584258 -0.5225591655583539 -0.5225591655583539 -0.5225591655583539 0.1380309731109286 
0.1380309731109286 0.1380309731109286 0.1392719981170353 0.1392719981170353 0.1392719981170353 0.140932502701533 0.140932502701533 0.140932502701533 -0.4055261548313931 
-0.4055261548313931 -0.4055261548313931 -0.4088531708039205 -0.4088531708039205 -0.4088531708039205 -0.4104689813565113 -0.4104689813565113 -0.4104689813565113 -0.3225802249526981 
-0.3225802249526981 -0.3225802249526981 -0.3050161829686169 -0.3050161829686169 -0.3050161829686169 -0.3058541946249569 -0.3058541946249569 -0.3058541946249569 0.2683257393385717 
0.2683257393385717 0.2683257393385717 0.2651037814952827 0.2651037814952827 0.2651037814952827 0.263723189498734 0.263723189498734 0.263723189498734 -0.4934988318018881 
-0.4934988318018881 -0.4934988318018881 -0.5321592980080991 -0.5321592980080991 -0.5321592980080991 -0.5406870286469773 -0.5406870286469773 -0.5406870286469773 -0.2578225373014095 