Title = Triangle100
FileType = Solution
Variables = q
Zone T = Triangle100
ZoneType = FETriangle
Nodes = 99072
Elements = 33024
DataPacking = Block
StrandID = 18
SolutionTime = 1.7
0.1781168162288148 0.1781168162288148 0.1781168162288148 0.1597475042245065 0.1597475042245065 0.1597475042245065 0.1617437498871001 0.1617437498871001 0.1617437498871001 0.1563427385354362 
0.1563427385354362 0.1563427385354362 0.1993547599649949 0.1993547599649949 0.1993547599649949 0.2820703665962316 0.2820703665962316 0.2820703665962316 0.3120608331637545 
0.3120608331637545 0.3120608331637545 -0.4120488131172282 -0.4120488131172282 -0.4120488131172282 -0.4124667928785424 -0.4124667928785424 -0.4124667928785424 0.3517692841952783 
0.3517692841952783 0.3517692841952783 0.3505794758484707 0.3505794758484707 0.3505794758484707 0.5046367259196316 0.5046367259196316 0.5046367259196316 0.5105794618114147 
0.5105794618114147 0.5105794618114147 -0.1013793593934184 -0.1013793593934184 -0.1013793593934184 -0.1022161906722523 -0.1022161906722523 -0.1022161906722523 -0.180747940409862 
-0.180747940409862 -0.180747940409862 -0.1924581276330586 -0.1924581276330586 -0.1924581276330586 0.3863400494266963 0.3863400494266963 0.3863400494266963 0.4019797368370769 
0.4019797368370769 0.4019797368370769 0.4192969168548326 0.4192969168548326 0.4192969168548326 0.4148080314708689 0.4148080314708689 0.4148080314708689 0.3920299173496223 
0.3920299173496223 0.3920299173496223 0.3447155174056038 0.3447155174056038 0.3447155174056038 0.3552212898354519 0.3552212898354519 0.3552212898354519 -0.2703298463373112 
-0.2703298463373112 -0.2703298463373112 -0.2206165732544818 -0.2206165732544818 -0.2206165732544818 -0.4323215745951703 -0.4323215745951703 -0.4323215745951703 -0.4383035391764875 
-0.4383035391764875 -0.4383035391764875 0.1692699489990412 0.1692699489990412 0.1692699489990412 0.1285539894563729 0.1285539894563729 0.1285539894563729 -0.5539676017798116 
-0.5539676017798116 -0.5539676017798116 -0.5515950537653534 -0.5515950537653534 -0.5515950537653534 -0.5518003681302066 -0.5518003681302066 -0.5518003681302066 0.4097221296528936 
0.4097221296528936 0.4097221296528936 0.4342565967524172 0.4342565967524172 0.4342565967524172 0.4540163813860958 0.4540163813860958 0.4540163813860958 -0.4261371463919053 
-0.4261371463919053 -0.4261371463919053 -0.4247846428284663 -0.4247846428284663 -0.4247846428284663 -0.4288765696074625 -0.4288765696074625 -0.4288765696074625 0.5076429542950203 
0.5076429542950203 0.5076429542950203 0.5082107923395291 0.5082107923395291 0.5082107923395291 0.5096488965333947 0.5096488965333947 0.5096488965333947 -0.1976641025229444 
-0.1976641025229444 -0.1976641025229444 -0.1962612190264307 -0.1962612190264307 -0.1962612190264307 -0.1959001493878515 -0.1959001493878515 -0.1959001493878515 -0.004676046854138808 
-0.004676046854138808 -0.004676046854138808 0.02421533900827218 0.02421533900827218 0.02421533900827218 0.02384144591510446 0.02384144591510446 0.02384144591510446 0.2956252614075539 
0.2956252614075539 0.2956252614075539 0.2942735637566439 0.2942735637566439 0.2942735637566439 0.2938640633683842 0.2938640633683842 0.2938640633683842 0.3742635706556719 
0.3742635706556719 0.3742635706556719 0.3724586675390885 0.3724586675390885 0.3724586675390885 -0.4570267191128139 -0.4570267191128139 -0.4570267191128139 -0.4548470424132366 
-0.4548470424132366 -0.4548470424132366 -0.5322106425516078 -0.5322106425516078 -0.5322106425516078 -0.5309639117786906 -0.5309639117786906 -0.5309639117786906 0.2526415000931894 
0.2526415000931894 0.2526415000931894 0.253518303796536 0.253518303796536 0.253518303796536 -0.1878800036283742 -0.1878800036283742 -0.1878800036283742 -0.1924083839537419 
-0.1924083839537419 -0.1924083839537419 0.1741843502960537 0.1741843502960537 0.1741843502960537 0.1905466390700084 0.1905466390700084 0.1905466390700084 -0.3897166874414486 
-0.3897166874414486 -0.3897166874414486 -0.3883979618704352 -0.3883979618704352 -0.3883979618704352 0.08748686591509372 0.08748686591509372 0.08748686591509372 0.03726494187638636 
0.03726494187638636 0.03726494187638636 -0.2163773751856233 -0.2163773751856233 -0.2163773751856233 -0.2141028088951537 -0.2141028088951537 -0.2141028088951537 -0.4086683201233843 
-0.4086683201233843 -0.4086683201233843 -0.3802076381087823 -0.3802076381087823 -0.3802076381087823 0.2082871625604875 0.2082871625604875 0.2082871625604875 0.2098817225703517 
0.2098817225703517 0.2098817225703517 -0.07862443906928147 -0.07862443906928147 -0.07862443906928147 -0.08049895557722628 -0.08049895557722628 -0.08049895557722628 -0.2789034995261035 
-0.2789034995261035 -0.2789034995261035 -0.2773993362581024 -0.2773993362581024 -0.2773993362581024 -0.4126776928743099 -0.4126776928743099 -0.4126776928743099 -0.4113640862603075 
-0.4113640862603075 -0.4113640862603075 -0.2782791450444884 -0.2782791450444884 -0.2782791450444884 -0.2790383632234148 -0.2790383632234148 -0.2790383632234148 0.08299719284129374 
0.08299719284129374 0.08299719284129374 0.07183382891787279 0.07183382891787279 0.07183382891787279 0.4194514562957226 0.4194514562957226 0.4194514562957226 0.4156938798710239 
0.4156938798710239 0.4156938798710239 -0.1804856949590504 -0.1804856949590504 -0.1804856949590504 -0.1827965601166376 -0.1827965601166376 -0.1827965601166376 0.1008782800988483 
0.1008782800988483 0.1008782800988483 0.1011571021499605 0.1011571021499605 0.1011571021499605 0.2005298358346554 0.2005298358346554 0.2005298358346554 0.2236520702771543 
0.2236520702771543 0.2236520702771543 0.5338958895243902 0.5338958895243902 0.5338958895243902 0.3584290181597456 0.3584290181597456 0.3584290181597456 0.3556840625833119 
0.3556840625833119 0.3556840625833119 0.4331001623250921 0.4331001623250921 0.4331001623250921 0.4464235261745343 0.4464235261745343 0.4464235261745343 -0.0421479758190499 
-0.0421479758190499 -0.0421479758190499 -0.05541838190428611 -0.05541838190428611 -0.05541838190428611 0.3770828412596757 0.3770828412596757 0.3770828412596757 0.374073476290034 
0.374073476290034 0.374073476290034 -0.1030707509230898 -0.1030707509230898 -0.1030707509230898 -0.102032153989363 -0.102032153989363 -0.102032153989363 -0.4314627161410595 
-0.4314627161410595 -0.4314627161410595 -0.4332134862379686 -0.4332134862379686 -0.4332134862379686 0.3740732764706547 0.3740732764706547 0.3740732764706547 0.3719248318400304 
0.3719248318400304 0.3719248318400304 0.155615177810014 0.155615177810014 0.155615177810014 0.1531614573593184 0.1531614573593184 0.1531614573593184 0.3500220956021552 
0.3500220956021552 0.3500220956021552 0.3471538545317351 0.3471538545317351 0.3471538545317351 -0.1854559117457467 -0.1854559117457467 -0.1854559117457467 -0.1802898302996503 
-0.1802898302996503 -0.1802898302996503 0.2089509345444031 0.2089509345444031 0.2089509345444031 0.216784153623554 0.216784153623554 0.216784153623554 -0.2593643980136613 
-0.2593643980136613 -0.2593643980136613 -0.2535829452621739 -0.2535829452621739 -0.2535829452621739 -0.289323749684529 -0.289323749684529 -0.289323749684529 -0.2853830322540424 
-0.2853830322540424 -0.2853830322540424 -0.3763579605126851 -0.3763579605126851 -0.3763579605126851 -0.4132699773848247 -0.4132699773848247 -0.4132699773848247 -0.2552226011311647 
-0.2552226011311647 -0.2552226011311647 -0.2430327696637818 -0.2430327696637818 -0.2430327696637818 0.2912997538080542 0.2912997538080542 0.2912997538080542 0.2885578247396736 
0.2885578247396736 0.2885578247396736 0.1356339224256674 0.1356339224256674 0.1356339224256674 0.1361913043511891 0.1361913043511891 0.1361913043511891 0.137487082445497 
0.137487082445497 0.137487082445497 -0.4164470833702226 -0.4164470833702226 -0.4164470833702226 -0.4179403385685566 -0.4179403385685566 -0.4179403385685566 -0.4132916214129559 
-0.4132916214129559 -0.4132916214129559 -0.4251492462930517 -0.4251492462930517 -0.4251492462930517 -0.4232418820041133 -0.4232418820041133 -0.4232418820041133 -0.4220963647138352 
-0.4220963647138352 -0.4220963647138352 0.04205167270143927 0.04205167270143927 0.04205167270143927 0.04056944259948994 0.04056944259948994 0.04056944259948994 0.0390182602464773 
0.0390182602464773 0.0390182602464773 -0.3453100112247932 -0.3453100112247932 -0.3453100112247932 -0.3471018722464198 -0.3471018722464198 -0.3471018722464198 -0.3485928091305666 
-0.3485928091305666 -0.3485928091305666 0.505394597729717 0.505394597729717 0.505394597729717 0.5104856934807669 0.5104856934807669 0.5104856934807669 0.1346312172993139 
0.1346312172993139 0.1346312172993139 0.1405507684338565 0.1405507684338565 0.1405507684338565 0.1027671754617712 0.1027671754617712 0.1027671754617712 -0.2399675677192388 
-0.2399675677192388 -0.2399675677192388 -0.2866649892696013 -0.2866649892696013 -0.2866649892696013 -0.3063037001270102 -0.3063037001270102 -0.3063037001270102 -0.3779888893529633 
-0.3779888893529633 -0.3779888893529633 -0.369098754716297 -0.369098754716297 -0.369098754716297 -0.3686270814935527 -0.3686270814935527 -0.3686270814935527 0.212026930607478 
0.212026930607478 0.212026930607478 0.1506526085899333 0.1506526085899333 0.1506526085899333 0.1519145239668138 0.1519145239668138 0.1519145239668138 -0.1926293983502526 
-0.1926293983502526 -0.1926293983502526 -0.190820243550127 -0.190820243550127 -0.190820243550127 -0.1909167594971601 -0.1909167594971601 -0.1909167594971601 0.3460922797030734 
0.3460922797030734 0.3460922797030734 0.3425172136874634 0.3425172136874634 0.3425172136874634 0.3413548210764397 0.3413548210764397 0.3413548210764397 0.3456210083220345 
0.3456210083220345 0.3456210083220345 0.3801860019668647 0.3801860019668647 0.3801860019668647 0.3811997115975079 0.3811997115975079 0.3811997115975079 0.1381732374316621 
0.1381732374316621 0.1381732374316621 0.1394475514120483 0.1394475514120483 0.1394475514120483 -0.4536923732137864 -0.4536923732137864 -0.4536923732137864 -0.4523016350557718 
-0.4523016350557718 -0.4523016350557718 -0.451288161650293 -0.451288161650293 -0.451288161650293 -0.1384938178860569 -0.1384938178860569 -0.1384938178860569 -0.1031199052212618 
-0.1031199052212618 -0.1031199052212618 0.1532513769481343 0.1532513769481343 0.1532513769481343 0.1505462399246915 0.1505462399246915 0.1505462399246915 0.1259733673397075 
0.1259733673397075 0.1259733673397075 0.1314096826599659 0.1314096826599659 0.1314096826599659 -0.2040467444532065 -0.2040467444532065 -0.2040467444532065 -0.2298614955482434 
-0.2298614955482434 -0.2298614955482434 0.3681938603398958 0.3681938603398958 0.3681938603398958 0.3840268296419723 0.3840268296419723 0.3840268296419723 0.3288177495219864 
0.3288177495219864 0.3288177495219864 0.3411051870459273 0.3411051870459273 0.3411051870459273 -0.5571845209478073 -0.5571845209478073 -0.5571845209478073 -0.5558726248984573 
-0.5558726248984573 -0.5558726248984573 0.3596857812237456 0.3596857812237456 0.3596857812237456 0.358253246154823 0.358253246154823 0.358253246154823 -0.5012648815591771 
-0.5012648815591771 -0.5012648815591771 -0.5023607028573055 -0.5023607028573055 -0.5023607028573055 0.2283625007384787 0.2283625007384787 0.2283625007384787 0.2366248294045625 
0.2366248294045625 0.2366248294045625 -0.2142306949558563 -0.2142306949558563 -0.2142306949558563 -0.2126610708012236 -0.2126610708012236 -0.2126610708012236 0.1003910689495443 
0.1003910689495443 0.1003910689495443 0.09863826125983308 0.09863826125983308 0.09863826125983308 -0.0502557036038012 -0.0502557036038012 -0.0502557036038012 0.05695887071725338 
0.05695887071725338 0.05695887071725338 -0.2495277675244235 -0.2495277675244235 -0.2495277675244235 -0.2551777507054079 -0.2551777507054079 -0.2551777507054079 0.3798771694140816 
0.3798771694140816 0.3798771694140816 0.3783002652943993 0.3783002652943993 0.3783002652943993 -0.3309651168514631 -0.3309651168514631 -0.3309651168514631 -0.3323813808304192 
-0.3323813808304192 -0.3323813808304192 -0.3329718791936961 -0.3329718791936961 -0.3329718791936961 -0.3339839643070663 -0.3339839643070663 -0.3339839643070663 0.2518041317201832 
0.2518041317201832 0.2518041317201832 0.2537752239041882 0.2537752239041882 0.2537752239041882 -0.2907942608140613 -0.2907942608140613 -0.2907942608140613 -0.2908291174807512 
-0.2908291174807512 -0.2908291174807512 -0.4554932250484881 -0.4554932250484881 -0.4554932250484881 -0.46555942328445 -0.46555942328445 -0.46555942328445 0.09982140049491296 
0.09982140049491296 0.09982140049491296 0.1003405504166448 0.1003405504166448 0.1003405504166448 -0.5446909074224964 -0.5446909074224964 -0.5446909074224964 -0.5447070178843745 
-0.5447070178843745 -0.5447070178843745 0.3902206638946758 0.3902206638946758 0.3902206638946758 0.3891265773932434 0.3891265773932434 0.3891265773932434 -0.5277331420609509 
-0.5277331420609509 -0.5277331420609509 -0.5293085620659013 -0.5293085620659013 -0.5293085620659013 -0.3215500997495208 -0.3215500997495208 -0.3215500997495208 -0.316589681906837 
-0.316589681906837 -0.316589681906837 -0.4462160430412546 -0.4462160430412546 -0.4462160430412546 -0.4466659401782727 -0.4466659401782727 -0.4466659401782727 -0.5118403971069644 
-0.5118403971069644 -0.5118403971069644 -0.5102744303941059 -0.5102744303941059 -0.5102744303941059 0.09772866269021879 0.09772866269021879 0.09772866269021879 0.09951524635796441 
0.09951524635796441 0.09951524635796441 0.4581213764889408 0.4581213764889408 0.4581213764889408 0.4576568101657226 0.4576568101657226 0.4576568101657226 -0.4305441822801425 
-0.4305441822801425 -0.4305441822801425 -0.4316852446933613 -0.4316852446933613 -0.4316852446933613 0.4701282602974455 0.4701282602974455 0.4701282602974455 0.4713426087233473 
0.4713426087233473 0.4713426087233473 0.3632976259630334 0.3632976259630334 0.3632976259630334 0.3101553678437856 0.3101553678437856 0.3101553678437856 0.3985799036620013 
0.3985799036620013 0.3985799036620013 0.3973325884107295 0.3973325884107295 0.3973325884107295 0.3769752546934871 0.3769752546934871 0.3769752546934871 0.3756215953382074 
0.3756215953382074 0.3756215953382074 -0.430422992580798 -0.430422992580798 -0.430422992580798 0.1565992564289666 0.1565992564289666 0.1565992564289666 0.1576903337382622 
0.1576903337382622 0.1576903337382622 -0.3808173863639334 -0.3808173863639334 -0.3808173863639334 -0.3824804364455829 -0.3824804364455829 -0.3824804364455829 -0.3875993545855979 
-0.3875993545855979 -0.3875993545855979 -0.3863224120047994 -0.3863224120047994 -0.3863224120047994 -0.3214487721066593 -0.3214487721066593 -0.3214487721066593 -0.3386704270007182 
-0.3386704270007182 -0.3386704270007182 0.2283693428724047 0.2283693428724047 0.2283693428724047 0.2293763988002849 0.2293763988002849 0.2293763988002849 0.3849648777527707 
0.3849648777527707 0.3849648777527707 0.3823970245061957 0.3823970245061957 0.3823970245061957 -0.2112452021957002 -0.2112452021957002 -0.2112452021957002 -0.2057806390976887 
-0.2057806390976887 -0.2057806390976887 -0.339995144985958 -0.339995144985958 -0.339995144985958 -0.3300826441129482 -0.3300826441129482 -0.3300826441129482 0.1550649066604722 
0.1550649066604722 0.1550649066604722 0.1533215537984948 0.1533215537984948 0.1533215537984948 -0.3338414380940132 -0.3338414380940132 -0.3338414380940132 -0.3329266130920615 
-0.3329266130920615 -0.3329266130920615 0.5092540790189685 0.5092540790189685 0.5092540790189685 -0.1391838210142462 -0.1391838210142462 -0.1391838210142462 -0.1061125344644995 
-0.1061125344644995 -0.1061125344644995 0.3020010467020547 0.3020010467020547 0.3020010467020547 0.3021213284685516 0.3021213284685516 0.3021213284685516 -0.3409250995191218 
-0.3409250995191218 -0.3409250995191218 -0.3408737671269113 -0.3408737671269113 -0.3408737671269113 -0.1627634760257385 -0.1627634760257385 -0.1627634760257385 -0.1603848017858618 
-0.1603848017858618 -0.1603848017858618 0.09103540958554651 0.09103540958554651 0.09103540958554651 0.09409510067094365 0.09409510067094365 0.09409510067094365 0.29748486889769 
0.29748486889769 0.29748486889769 0.1852942381962738 0.1852942381962738 0.1852942381962738 0.2429595673424133 0.2429595673424133 0.2429595673424133 0.1711315299859655 
0.1711315299859655 0.1711315299859655 0.1724532472811279 0.1724532472811279 0.1724532472811279 -0.3514140584700066 -0.3514140584700066 -0.3514140584700066 -0.3501211654343769 
-0.3501211654343769 -0.3501211654343769 -0.3880572406328216 -0.3880572406328216 -0.3880572406328216 -0.388820690997612 -0.388820690997612 -0.388820690997612 -0.5549350212136194 
-0.5549350212136194 -0.5549350212136194 -0.5511290663012368 -0.5511290663012368 -0.5511290663012368 0.3476759546166719 0.3476759546166719 0.3476759546166719 0.3469505801083366 
0.3469505801083366 0.3469505801083366 -0.174664632511237 -0.174664632511237 -0.174664632511237 -0.1755673898863953 -0.1755673898863953 -0.1755673898863953 0.3023404273642527 
0.3023404273642527 0.3023404273642527 0.3011890529495365 0.3011890529495365 0.3011890529495365 0.3283211413719503 0.3283211413719503 0.3283211413719503 0.3169991716165532 
0.3169991716165532 0.3169991716165532 0.2124831561099947 0.2124831561099947 0.2124831561099947 0.2151178350056009 0.2151178350056009 0.2151178350056009 0.1390682170809582 
0.1390682170809582 0.1390682170809582 0.1487497297893753 0.1487497297893753 0.1487497297893753 0.04767123065989063 0.04767123065989063 0.04767123065989063 0.03873087081299729 
0.03873087081299729 0.03873087081299729 -0.165870576572677 -0.165870576572677 -0.165870576572677 -0.1674312456079023 -0.1674312456079023 -0.1674312456079023 0.111897051510115 
0.111897051510115 0.111897051510115 0.06117719690362765 0.06117719690362765 0.06117719690362765 -0.4813008322995733 -0.4813008322995733 -0.4813008322995733 -0.513612291318464 
-0.513612291318464 -0.513612291318464 -0.02454192040952085 -0.02454192040952085 -0.02454192040952085 -0.3506879799407663 -0.3506879799407663 -0.3506879799407663 -0.3470892389341985 
-0.3470892389341985 -0.3470892389341985 -0.2811306004861516 -0.2811306004861516 -0.2811306004861516 -0.2782411017770206 -0.2782411017770206 -0.2782411017770206 0.3722004819134106 
0.3722004819134106 0.3722004819134106 0.3694591742959037 0.3694591742959037 0.3694591742959037 0.4550728665530301 0.4550728665530301 0.4550728665530301 0.4656218296512794 
0.4656218296512794 0.4656218296512794 0.2756572366335884 0.2756572366335884 0.2756572366335884 0.2070210411623972 0.2070210411623972 0.2070210411623972 0.2626983714464545 
0.2626983714464545 0.2626983714464545 0.2523686405105363 0.2523686405105363 0.2523686405105363 -0.298265388428995 -0.298265388428995 -0.298265388428995 -0.2623199995187867 
-0.2623199995187867 -0.2623199995187867 -0.3714783427319526 -0.3714783427319526 -0.3714783427319526 -0.3565673386253152 -0.3565673386253152 -0.3565673386253152 -0.4099140481425139 
-0.4099140481425139 -0.4099140481425139 -0.406712505464351 -0.406712505464351 -0.406712505464351 -0.3299051750368805 -0.3299051750368805 -0.3299051750368805 -0.3339203419352753 
-0.3339203419352753 -0.3339203419352753 -0.1907513813367472 -0.1907513813367472 -0.1907513813367472 -0.1814970042710874 -0.1814970042710874 -0.1814970042710874 -0.1534058430476649 
-0.1534058430476649 -0.1534058430476649 -0.1480805133899455 -0.1480805133899455 -0.1480805133899455 0.3015630198914632 0.3015630198914632 0.3015630198914632 0.3134585408996546 
0.3134585408996546 0.3134585408996546 0.3573436296552472 0.3573436296552472 0.3573436296552472 0.3036723639966312 0.3036723639966312 0.3036723639966312 0.06559354357233242 
0.06559354357233242 0.06559354357233242 0.06237489683948427 0.06237489683948427 0.06237489683948427 -0.2570531978984383 -0.2570531978984383 -0.2570531978984383 -0.2571743901938436 
-0.2571743901938436 -0.2571743901938436 -0.5603193389345749 -0.5603193389345749 -0.5603193389345749 0.5052018382064063 0.5052018382064063 0.5052018382064063 0.5254446540805709 
0.5254446540805709 0.5254446540805709 0.4917576861539904 0.4917576861539904 0.4917576861539904 0.5014030085463005 0.5014030085463005 0.5014030085463005 -0.3516162009616149 
-0.3516162009616149 -0.3516162009616149 -0.3452772897744528 -0.3452772897744528 -0.3452772897744528 -0.1221224777376379 -0.1221224777376379 -0.1221224777376379 -0.1160205429644966 
-0.1160205429644966 -0.1160205429644966 0.2241234372372696 0.2241234372372696 0.2241234372372696 0.2266941176510671 0.2266941176510671 0.2266941176510671 -0.2770667309684958 
-0.2770667309684958 -0.2770667309684958 -0.2774460191167738 -0.2774460191167738 -0.2774460191167738 -0.266495817491721 -0.266495817491721 -0.266495817491721 -0.2604744669935528 
-0.2604744669935528 -0.2604744669935528 0.5060948580013186 0.5060948580013186 0.5060948580013186 0.5443085012016624 0.5443085012016624 0.5443085012016624 -0.3768709359456948 
-0.3768709359456948 -0.3768709359456948 -0.3690577083926078 -0.3690577083926078 -0.3690577083926078 0.04802392228710365 0.04802392228710365 0.04802392228710365 0.1347899102794831 
0.1347899102794831 0.1347899102794831 -0.4524610582899502 -0.4524610582899502 -0.4524610582899502 -0.4604575888278976 -0.4604575888278976 -0.4604575888278976 0.3747678466906453 
0.3747678466906453 0.3747678466906453 0.374200662605481 0.374200662605481 0.374200662605481 0.2709079123749782 0.2709079123749782 0.2709079123749782 0.2443415066877004 
0.2443415066877004 0.2443415066877004 0.3473866641888608 0.3473866641888608 0.3473866641888608 0.3479003998842881 0.3479003998842881 0.3479003998842881 0.5090767609639582 
0.5090767609639582 0.5090767609639582 0.5235106266405551 0.5235106266405551 0.5235106266405551 -0.3089230983788079 -0.3089230983788079 -0.3089230983788079 -0.2345219567343484 
-0.2345219567343484 -0.2345219567343484 -0.3948622707894912 -0.3948622707894912 -0.3948622707894912 -0.3993140999517977 -0.3993140999517977 -0.3993140999517977 0.5322574999585437 
0.5322574999585437 0.5322574999585437 0.5238219933958693 0.5238219933958693 0.5238219933958693 -0.3245300550711844 -0.3245300550711844 -0.3245300550711844 -0.3275469098632661 
-0.3275469098632661 -0.3275469098632661 -0.2984338918825484 -0.2984338918825484 -0.2984338918825484 -0.3125545527280338 -0.3125545527280338 -0.3125545527280338 0.4119883281098944 
0.4119883281098944 0.4119883281098944 0.4157858524908672 0.4157858524908672 0.4157858524908672 0.3556495518481813 0.3556495518481813 0.3556495518481813 0.3532948475484062 
0.3532948475484062 0.3532948475484062 -0.163041673540288 -0.163041673540288 -0.163041673540288 -0.2386625815081781 -0.2386625815081781 -0.2386625815081781 -0.2722122343566131 
-0.2722122343566131 -0.2722122343566131 -0.2757948128005537 -0.2757948128005537 -0.2757948128005537 0.3150845062103441 0.3150845062103441 0.3150845062103441 0.2695074688768219 
0.2695074688768219 0.2695074688768219 -0.373282454775693 -0.373282454775693 -0.373282454775693 -0.3381132103525909 -0.3381132103525909 -0.3381132103525909 0.1253154701499494 
0.1253154701499494 0.1253154701499494 0.1271750415632274 0.1271750415632274 0.1271750415632274 -0.5213235329433198 -0.5213235329433198 -0.5213235329433198 -0.5210518466588892 
-0.5210518466588892 -0.5210518466588892 0.03895691090551375 0.03895691090551375 0.03895691090551375 0.0361902554036837 0.0361902554036837 0.0361902554036837 0.4238715925387182 
0.4238715925387182 0.4238715925387182 0.4225609099224398 0.4225609099224398 0.4225609099224398 0.1195726282231686 0.1195726282231686 0.1195726282231686 -0.04296439934405667 
-0.04296439934405667 -0.04296439934405667 0.165234105965633 0.165234105965633 0.165234105965633 0.1630952714629497 0.1630952714629497 0.1630952714629497 -0.4525019646120945 
-0.4525019646120945 -0.4525019646120945 -0.4546978612714456 -0.4546978612714456 -0.4546978612714456 0.08344551487421754 0.08344551487421754 0.08344551487421754 0.009334128465125095 
0.009334128465125095 0.009334128465125095 -0.4676445688626052 -0.4676445688626052 -0.4676445688626052 -0.4678636914542425 -0.4678636914542425 -0.4678636914542425 0.3346067609889552 
0.3346067609889552 0.3346067609889552 0.2851149415961662 0.2851149415961662 0.2851149415961662 0.2897499606681148 0.2897499606681148 0.2897499606681148 0.2849800126799105 
0.2849800126799105 0.2849800126799105 -0.1554184439885694 -0.1554184439885694 -0.1554184439885694 -0.1628640132405413 -0.1628640132405413 -0.1628640132405413 -0.2211429237751571 
-0.2211429237751571 -0.2211429237751571 -0.2287416036103 -0.2287416036103 -0.2287416036103 0.3518533520903185 0.3518533520903185 0.3518533520903185 0.3548621491791606 
0.3548621491791606 0.3548621491791606 0.1608208691228981 0.1608208691228981 0.1608208691228981 0.1479947990354869 0.1479947990354869 0.1479947990354869 0.3441354041383555 
0.3441354041383555 0.3441354041383555 0.3602759425185703 0.3602759425185703 0.3602759425185703 0.2627258253536659 0.2627258253536659 0.2627258253536659 0.2575940424585679 
0.2575940424585679 0.2575940424585679 0.3029661998518929 0.3029661998518929 0.3029661998518929 0.3003146308262049 0.3003146308262049 0.3003146308262049 0.2994566047758109 
0.2994566047758109 0.2994566047758109 0.3010223367684665 0.3010223367684665 0.3010223367684665 -0.5123179966440514 -0.5123179966440514 -0.5123179966440514 -0.5109786057182468 
-0.5109786057182468 -0.5109786057182468 -0.512441777152552 -0.512441777152552 -0.512441777152552 -0.1572415483981442 -0.1572415483981442 -0.1572415483981442 -0.1521886253625176 
-0.1521886253625176 -0.1521886253625176 -0.1420747173883451 -0.1420747173883451 -0.1420747173883451 -0.3480421653480449 -0.3480421653480449 -0.3480421653480449 -0.3455980551293152 
-0.3455980551293152 -0.3455980551293152 -0.3447069260103591 -0.3447069260103591 -0.3447069260103591 -0.2655185413147906 -0.2655185413147906 -0.2655185413147906 -0.2659463865858637 
-0.2659463865858637 -0.2659463865858637 -0.2230242661521771 -0.2230242661521771 -0.2230242661521771 -0.4961832079808151 -0.4961832079808151 -0.4961832079808151 -0.494984060474553 
-0.494984060474553 -0.494984060474553 -0.4953812690834636 -0.4953812690834636 -0.4953812690834636 -0.4749441425411642 -0.4749441425411642 -0.4749441425411642 -0.4798052660516269 
-0.4798052660516269 -0.4798052660516269 -0.4585535531093715 -0.4585535531093715 -0.4585535531093715 0.3580382729409235 0.3580382729409235 0.3580382729409235 0.2033588328053444 
0.2033588328053444 0.2033588328053444 0.1940491807159581 0.1940491807159581 0.1940491807159581 0.1938674261095351 0.1938674261095351 0.1938674261095351 0.2973666522857948 
0.2973666522857948 0.2973666522857948 0.2955600938899648 0.2955600938899648 0.2955600938899648 0.2500277945325608 0.2500277945325608 0.2500277945325608 0.2000757340217291 
0.2000757340217291 0.2000757340217291 0.1963263129647866 0.1963263129647866 0.1963263129647866 0.1363106394905317 0.1363106394905317 0.1363106394905317 -0.2743107261744759 
-0.2743107261744759 -0.2743107261744759 -0.2707840127447133 -0.2707840127447133 -0.2707840127447133 -0.2646939171818525 -0.2646939171818525 -0.2646939171818525 0.178625778628908 
0.178625778628908 0.178625778628908 0.2125684729323075 0.2125684729323075 0.2125684729323075 0.2194661892251511 0.2194661892251511 0.2194661892251511 -0.3588522026321751 
-0.3588522026321751 -0.3588522026321751 -0.3757890949218197 -0.3757890949218197 -0.3757890949218197 -0.3560529222108261 -0.3560529222108261 -0.3560529222108261 0.4783995912740782 
0.4783995912740782 0.4783995912740782 0.4682584689395188 0.4682584689395188 0.4682584689395188 0.4706349938571018 0.4706349938571018 0.4706349938571018 -0.4601977549164662 
-0.4601977549164662 -0.4601977549164662 -0.4589922680433892 -0.4589922680433892 -0.4589922680433892 -0.4618975262721287 -0.4618975262721287 -0.4618975262721287 0.2073642354016342 
0.2073642354016342 0.2073642354016342 0.2059994141147787 0.2059994141147787 0.2059994141147787 0.2109550112630994 0.2109550112630994 0.2109550112630994 -0.2355796444016204 
-0.2355796444016204 -0.2355796444016204 -0.2589018041130196 -0.2589018041130196 -0.2589018041130196 -0.265900741957089 -0.265900741957089 -0.265900741957089 -0.4032931730233438 
-0.4032931730233438 -0.4032931730233438 -0.4023017747519891 -0.4023017747519891 -0.4023017747519891 -0.4010123835682422 -0.4010123835682422 -0.4010123835682422 -0.222886182770651 
-0.222886182770651 -0.222886182770651 -0.2214634560899837 -0.2214634560899837 -0.2214634560899837 -0.2226991311776262 -0.2226991311776262 -0.2226991311776262 0.463005899138917 
0.463005899138917 0.463005899138917 0.4545490042599324 0.4545490042599324 0.4545490042599324 0.4846570275580535 0.4846570275580535 0.4846570275580535 0.3734293624250553 
0.3734293624250553 0.3734293624250553 0.3755270795391804 0.3755270795391804 0.3755270795391804 0.3756014117618923 0.3756014117618923 0.3756014117618923 0.4641493630777875 
0.4641493630777875 0.4641493630777875 0.4649761528096953 0.4649761528096953 0.4649761528096953 0.4649528470647597 0.4649528470647597 0.4649528470647597 -0.5245917606364907 
-0.5245917606364907 -0.5245917606364907 -0.5239150783417665 -0.5239150783417665 -0.5239150783417665 -0.5233498747429193 -0.5233498747429193 -0.5233498747429193 0.1306881682701591 
0.1306881682701591 0.1306881682701591 0.1318376878448113 0.1318376878448113 0.1318376878448113 0.1333864367964733 0.1333864367964733 0.1333864367964733 -0.384044253565289 
-0.384044253565289 -0.384044253565289 -0.3870973326568626 -0.3870973326568626 -0.3870973326568626 -0.3886349867158555 -0.3886349867158555 -0.3886349867158555 -0.4193379610408802 
-0.4193379610408802 -0.4193379610408802 -0.3655835056970167 -0.3655835056970167 -0.3655835056970167 -0.3717924333122813 -0.3717924333122813 -0.3717924333122813 0.2560512113920222 
0.2560512113920222 0.2560512113920222 0.2513988612241865 0.2513988612241865 0.2513988612241865 0.250196442998121 0.250196442998121 0.250196442998121 -0.5492132493591658 
-0.5492132493591658 -0.5492132493591658 -0.5550644708049131 -0.5550644708049131 -0.5550644708049131 -0.5542325861325825 -0.5542325861325825 -0.5542325861325825 -0.2445588165296219 
-0.2445588165296219 -0.2445588165296219 -0.2484318375894042 -0.2484318375894042 -0.2484318375894042 -0.2474225057518171 -0.2474225057518171 -0.2474225057518171 -0.3811810146936561 