Title = Triangle100
FileType = Solution
Variables = q
Zone T = Triangle100
ZoneType = FETriangle
Nodes = 99072
Elements = 33024
DataPacking = Block
StrandID = 4
SolutionTime = 0.3
0.3068373696091544 0.3068373696091544 0.3068373696091544 0.2987483287843566 0.2987483287843566 0.2987483287843566 0.2940500376799522 0.2940500376799522 0.2940500376799522 -0.1678504886637035 
-0.1678504886637035 -0.1678504886637035 -0.1533431981108203 -0.1533431981108203 -0.1533431981108203 0.5289350912787494 0.5289350912787494 0.5289350912787494 0.5405025268166519 
0.5405025268166519 0.5405025268166519 -0.6944704893416396 -0.6944704893416396 -0.6944704893416396 -0.6999259659265311 -0.6999259659265311 -0.6999259659265311 0.3368870201191224 
0.3368870201191224 0.3368870201191224 0.3315847025761116 0.3315847025761116 0.3315847025761116 -0.01454517929884815 -0.01454517929884815 -0.01454517929884815 -0.01077945483876426 
-0.01077945483876426 -0.01077945483876426 -0.3589355075131838 -0.3589355075131838 -0.3589355075131838 -0.3651471971498289 -0.3651471971498289 -0.3651471971498289 0.2534750631971396 
0.2534750631971396 0.2534750631971396 0.2393475378341453 0.2393475378341453 0.2393475378341453 -0.05187284454883113 -0.05187284454883113 -0.05187284454883113 -0.05439864272540203 
-0.05439864272540203 -0.05439864272540203 0.6643778190300637 0.6643778190300637 0.6643778190300637 0.6447511607853291 0.6447511607853291 0.6447511607853291 0.635382080134327 
0.635382080134327 0.635382080134327 0.2320242639694012 0.2320242639694012 0.2320242639694012 0.2262535144997861 0.2262535144997861 0.2262535144997861 -0.6665889106910834 
-0.6665889106910834 -0.6665889106910834 -0.6617329328541269 -0.6617329328541269 -0.6617329328541269 -0.7161594893278225 -0.7161594893278225 -0.7161594893278225 -0.7307253197923655 
-0.7307253197923655 -0.7307253197923655 -0.2119353418730967 -0.2119353418730967 -0.2119353418730967 -0.2090880519917923 -0.2090880519917923 -0.2090880519917923 -0.1441401097939704 
-0.1441401097939704 -0.1441401097939704 -0.1481269082445341 -0.1481269082445341 -0.1481269082445341 -0.1539348073866083 -0.1539348073866083 -0.1539348073866083 0.2707413408714102 
0.2707413408714102 0.2707413408714102 0.2650239606599488 0.2650239606599488 0.2650239606599488 0.2605961329764593 0.2605961329764593 0.2605961329764593 -0.6360207404497041 
-0.6360207404497041 -0.6360207404497041 -0.6306987428025366 -0.6306987428025366 -0.6306987428025366 -0.6468489987727634 -0.6468489987727634 -0.6468489987727634 0.04675467161657685 
0.04675467161657685 0.04675467161657685 -0.01644112597260898 -0.01644112597260898 -0.01644112597260898 -0.01346501213738309 -0.01346501213738309 -0.01346501213738309 0.2467312648408795 
0.2467312648408795 0.2467312648408795 0.2510245804390935 0.2510245804390935 0.2510245804390935 0.2526219126325972 0.2526219126325972 0.2526219126325972 0.1236824260758553 
0.1236824260758553 0.1236824260758553 0.1185566849819091 0.1185566849819091 0.1185566849819091 0.1126818432263507 0.1126818432263507 0.1126818432263507 0.1114757776129154 
0.1114757776129154 0.1114757776129154 0.1060623203130476 0.1060623203130476 0.1060623203130476 0.1038053725311351 0.1038053725311351 0.1038053725311351 0.4286677735286215 
0.4286677735286215 0.4286677735286215 0.4215956303167724 0.4215956303167724 0.4215956303167724 -0.7563568339675395 -0.7563568339675395 -0.7563568339675395 -0.7482375892206151 
-0.7482375892206151 -0.7482375892206151 -0.03361915282880734 -0.03361915282880734 -0.03361915282880734 -0.03049547958915056 -0.03049547958915056 -0.03049547958915056 0.09999724666608498 
0.09999724666608498 0.09999724666608498 0.1072332930498303 0.1072332930498303 0.1072332930498303 0.2852613558602091 0.2852613558602091 0.2852613558602091 0.2702266750436354 
0.2702266750436354 0.2702266750436354 0.3496672704662982 0.3496672704662982 0.3496672704662982 0.3476630048209057 0.3476630048209057 0.3476630048209057 -0.4899335433924297 
-0.4899335433924297 -0.4899335433924297 -0.4846138891911068 -0.4846138891911068 -0.4846138891911068 0.4006765154905102 0.4006765154905102 0.4006765154905102 0.3882306220051824 
0.3882306220051824 0.3882306220051824 -0.3447316573517637 -0.3447316573517637 -0.3447316573517637 -0.3508298180184536 -0.3508298180184536 -0.3508298180184536 -0.7192644756945112 
-0.7192644756945112 -0.7192644756945112 -0.7069377879587848 -0.7069377879587848 -0.7069377879587848 0.6917904337090035 0.6917904337090035 0.6917904337090035 0.687859354541475 
0.687859354541475 0.687859354541475 -0.3031422530001086 -0.3031422530001086 -0.3031422530001086 -0.313586986327376 -0.313586986327376 -0.313586986327376 -0.04547846428652206 
-0.04547846428652206 -0.04547846428652206 -0.03973945677270212 -0.03973945677270212 -0.03973945677270212 -0.5844039166713878 -0.5844039166713878 -0.5844039166713878 -0.5791367050991405 
-0.5791367050991405 -0.5791367050991405 -0.03883990873044533 -0.03883990873044533 -0.03883990873044533 -0.04288300105782039 -0.04288300105782039 -0.04288300105782039 -0.065176502304801 
-0.065176502304801 -0.065176502304801 -0.06027860321341957 -0.06027860321341957 -0.06027860321341957 0.6587684970777444 0.6587684970777444 0.6587684970777444 0.6495054761479837 
0.6495054761479837 0.6495054761479837 -0.6401817842898623 -0.6401817842898623 -0.6401817842898623 -0.6495686366886836 -0.6495686366886836 -0.6495686366886836 0.3740984428913324 
0.3740984428913324 0.3740984428913324 0.3686230510379536 0.3686230510379536 0.3686230510379536 -0.1469032542301347 -0.1469032542301347 -0.1469032542301347 -0.1256123785529036 
-0.1256123785529036 -0.1256123785529036 0.1715284974889412 0.1715284974889412 0.1715284974889412 0.364298716241396 0.364298716241396 0.364298716241396 0.3532372933803631 
0.3532372933803631 0.3532372933803631 -0.04000064396824514 -0.04000064396824514 -0.04000064396824514 -0.04650846097486917 -0.04650846097486917 -0.04650846097486917 -0.1972099554352106 
-0.1972099554352106 -0.1972099554352106 -0.2168089993845326 -0.2168089993845326 -0.2168089993845326 0.4398184201530181 0.4398184201530181 0.4398184201530181 0.4273560635624858 
0.4273560635624858 0.4273560635624858 -0.3887656305195373 -0.3887656305195373 -0.3887656305195373 -0.3774812392798599 -0.3774812392798599 -0.3774812392798599 -0.6571265094994563 
-0.6571265094994563 -0.6571265094994563 -0.6638788451266007 -0.6638788451266007 -0.6638788451266007 0.4278014791729358 0.4278014791729358 0.4278014791729358 0.419177176754801 
0.419177176754801 0.419177176754801 0.329714369455293 0.329714369455293 0.329714369455293 0.3160777649023708 0.3160777649023708 0.3160777649023708 0.3321204125062259 
0.3321204125062259 0.3321204125062259 0.3218449654734643 0.3218449654734643 0.3218449654734643 0.2933359674891868 0.2933359674891868 0.2933359674891868 0.3076173596442824 
0.3076173596442824 0.3076173596442824 -0.1847333880660014 -0.1847333880660014 -0.1847333880660014 -0.1860040528241608 -0.1860040528241608 -0.1860040528241608 0.02168554800748874 
0.02168554800748874 0.02168554800748874 0.02700457447689716 0.02700457447689716 0.02700457447689716 -0.08370629892724381 -0.08370629892724381 -0.08370629892724381 -0.06785868405086051 
-0.06785868405086051 -0.06785868405086051 -0.6974157644916177 -0.6974157644916177 -0.6974157644916177 -0.7137102486448841 -0.7137102486448841 -0.7137102486448841 0.04534396580867016 
0.04534396580867016 0.04534396580867016 0.06662548075194621 0.06662548075194621 0.06662548075194621 0.09318235167564422 0.09318235167564422 0.09318235167564422 0.08281483009297833 
0.08281483009297833 0.08281483009297833 0.5195202022586149 0.5195202022586149 0.5195202022586149 0.5214742520784255 0.5214742520784255 0.5214742520784255 0.5260701762640023 
0.5260701762640023 0.5260701762640023 -0.6026213348327891 -0.6026213348327891 -0.6026213348327891 -0.6119405480891672 -0.6119405480891672 -0.6119405480891672 -0.6016303466901238 
-0.6016303466901238 -0.6016303466901238 -0.633095192568059 -0.633095192568059 -0.633095192568059 -0.6254995785665681 -0.6254995785665681 -0.6254995785665681 -0.620944954197669 
-0.620944954197669 -0.620944954197669 0.1638970801279947 0.1638970801279947 0.1638970801279947 0.1582735266096099 0.1582735266096099 0.1582735266096099 0.1531172370934137 
0.1531172370934137 0.1531172370934137 -0.3106084508304381 -0.3106084508304381 -0.3106084508304381 -0.3179486190355097 -0.3179486190355097 -0.3179486190355097 -0.3239459365931162 
-0.3239459365931162 -0.3239459365931162 0.6435611822334825 0.6435611822334825 0.6435611822334825 0.8715453735599501 0.8715453735599501 0.8715453735599501 0.2768373742837931 
0.2768373742837931 0.2768373742837931 0.2716225214464038 0.2716225214464038 0.2716225214464038 0.2622360574493852 0.2622360574493852 0.2622360574493852 -0.3924674837963649 
-0.3924674837963649 -0.3924674837963649 -0.4060426418466019 -0.4060426418466019 -0.4060426418466019 -0.4031958130786872 -0.4031958130786872 -0.4031958130786872 -0.5216620776957394 
-0.5216620776957394 -0.5216620776957394 -0.5109127419771087 -0.5109127419771087 -0.5109127419771087 -0.5062250174267156 -0.5062250174267156 -0.5062250174267156 -0.03971364623680631 
-0.03971364623680631 -0.03971364623680631 -0.05191664870474202 -0.05191664870474202 -0.05191664870474202 -0.05682950602091883 -0.05682950602091883 -0.05682950602091883 0.2713947794914107 
0.2713947794914107 0.2713947794914107 0.2747286526259477 0.2747286526259477 0.2747286526259477 0.2785801303728815 0.2785801303728815 0.2785801303728815 0.3303296314663469 
0.3303296314663469 0.3303296314663469 0.3210573931125977 0.3210573931125977 0.3210573931125977 0.3159116863091555 0.3159116863091555 0.3159116863091555 0.7119819603298028 
0.7119819603298028 0.7119819603298028 0.7152802937969779 0.7152802937969779 0.7152802937969779 0.7111348684735674 0.7111348684735674 0.7111348684735674 0.5277066074995824 
0.5277066074995824 0.5277066074995824 0.5319182375754888 0.5319182375754888 0.5319182375754888 -0.7453761557151495 -0.7453761557151495 -0.7453761557151495 -0.7401587854221285 
-0.7401587854221285 -0.7401587854221285 -0.7363414940570052 -0.7363414940570052 -0.7363414940570052 -0.3349269536287097 -0.3349269536287097 -0.3349269536287097 -0.3229280324714461 
-0.3229280324714461 -0.3229280324714461 0.5654747223698908 0.5654747223698908 0.5654747223698908 0.5592423360345544 0.5592423360345544 0.5592423360345544 0.4850582372015535 
0.4850582372015535 0.4850582372015535 0.4956588835436841 0.4956588835436841 0.4956588835436841 -0.4165284625283375 -0.4165284625283375 -0.4165284625283375 -0.4226429718773069 
-0.4226429718773069 -0.4226429718773069 0.2475762640357079 0.2475762640357079 0.2475762640357079 0.2401099651814824 0.2401099651814824 0.2401099651814824 0.4766095151359949 
0.4766095151359949 0.4766095151359949 0.4881163919366054 0.4881163919366054 0.4881163919366054 -0.1122768362572146 -0.1122768362572146 -0.1122768362572146 -0.1075530356569607 
-0.1075530356569607 -0.1075530356569607 0.3703820456357644 0.3703820456357644 0.3703820456357644 0.3646080200531611 0.3646080200531611 0.3646080200531611 -0.9076353422392895 
-0.9076353422392895 -0.9076353422392895 -0.9091943231482493 -0.9091943231482493 -0.9091943231482493 -0.1090106214574477 -0.1090106214574477 -0.1090106214574477 -0.1019737532682246 
-0.1019737532682246 -0.1019737532682246 0.1998710098581292 0.1998710098581292 0.1998710098581292 0.2087651203417206 0.2087651203417206 0.2087651203417206 0.3946206811296666 
0.3946206811296666 0.3946206811296666 0.3892350430691914 0.3892350430691914 0.3892350430691914 -0.3891252320565266 -0.3891252320565266 -0.3891252320565266 -0.3756725170276491 
-0.3756725170276491 -0.3756725170276491 0.04447566861359446 0.04447566861359446 0.04447566861359446 0.03755038722294608 0.03755038722294608 0.03755038722294608 0.4510553612011215 
0.4510553612011215 0.4510553612011215 0.4447554419877494 0.4447554419877494 0.4447554419877494 -0.2526696568295617 -0.2526696568295617 -0.2526696568295617 -0.2584010789451663 
-0.2584010789451663 -0.2584010789451663 -0.2601905875114839 -0.2601905875114839 -0.2601905875114839 -0.2645461794288726 -0.2645461794288726 -0.2645461794288726 0.3861320839095117 
0.3861320839095117 0.3861320839095117 0.3786949997936309 0.3786949997936309 0.3786949997936309 -0.09017568061566139 -0.09017568061566139 -0.09017568061566139 -0.08995675983249447 
-0.08995675983249447 -0.08995675983249447 -0.7836406702903731 -0.7836406702903731 -0.7836406702903731 -0.7987668674130932 -0.7987668674130932 -0.7987668674130932 0.3877268576901892 
0.3877268576901892 0.3877268576901892 0.3904562384940904 0.3904562384940904 0.3904562384940904 -0.07482875887645253 -0.07482875887645253 -0.07482875887645253 -0.07210790594362515 
-0.07210790594362515 -0.07210790594362515 0.4928161267204947 0.4928161267204947 0.4928161267204947 0.488386278545793 0.488386278545793 0.488386278545793 -0.02284930667653177 
-0.02284930667653177 -0.02284930667653177 -0.02617728797203295 -0.02617728797203295 -0.02617728797203295 -0.2258493125401513 -0.2258493125401513 -0.2258493125401513 -0.2169334282093781 
-0.2169334282093781 -0.2169334282093781 -0.7167233053923141 -0.7167233053923141 -0.7167233053923141 -0.7181710583547402 -0.7181710583547402 -0.7181710583547402 -0.9324994693914489 
-0.9324994693914489 -0.9324994693914489 -0.9263487017865617 -0.9263487017865617 -0.9263487017865617 -0.04337482613532007 -0.04337482613532007 -0.04337482613532007 -0.04886261362478918 
-0.04886261362478918 -0.04886261362478918 0.7644609782526421 0.7644609782526421 0.7644609782526421 0.766682566554912 0.766682566554912 0.766682566554912 -0.6543374762331015 
-0.6543374762331015 -0.6543374762331015 -0.658840574094314 -0.658840574094314 -0.658840574094314 0.80400423159752 0.80400423159752 0.80400423159752 0.8086840662921742 
0.8086840662921742 0.8086840662921742 0.6879205253229672 0.6879205253229672 0.6879205253229672 0.6779284290423817 0.6779284290423817 0.6779284290423817 0.5356884545277062 
0.5356884545277062 0.5356884545277062 0.530512213255941 0.530512213255941 0.530512213255941 0.439548762905548 0.439548762905548 0.439548762905548 0.434062802866835 
0.434062802866835 0.434062802866835 -0.6529044298655209 -0.6529044298655209 -0.6529044298655209 0.5866095279971343 0.5866095279971343 0.5866095279971343 0.5910957677373154 
0.5910957677373154 0.5910957677373154 -0.4558223444204326 -0.4558223444204326 -0.4558223444204326 -0.4629626784173511 -0.4629626784173511 -0.4629626784173511 -0.4814894129989434 
-0.4814894129989434 -0.4814894129989434 -0.4763290612271222 -0.4763290612271222 -0.4763290612271222 0.07748025827456977 0.07748025827456977 0.07748025827456977 0.08078575817596942 
0.08078575817596942 0.08078575817596942 -0.1589634347446363 -0.1589634347446363 -0.1589634347446363 -0.1556181322223023 -0.1556181322223023 -0.1556181322223023 0.4088831811598543 
0.4088831811598543 0.4088831811598543 0.1130766721101505 0.1130766721101505 0.1130766721101505 0.2208856845167337 0.2208856845167337 0.2208856845167337 0.2359878922920773 
0.2359878922920773 0.2359878922920773 -0.3170179125686545 -0.3170179125686545 -0.3170179125686545 -0.3081866510165483 -0.3081866510165483 -0.3081866510165483 0.3573294542603927 
0.3573294542603927 0.3573294542603927 0.3621915127951707 0.3621915127951707 0.3621915127951707 -0.2894047328633389 -0.2894047328633389 -0.2894047328633389 -0.283446982504578 
-0.283446982504578 -0.283446982504578 0.9089033868706152 0.9089033868706152 0.9089033868706152 0.07932812440650747 0.07932812440650747 0.07932812440650747 0.07334705045001674 
0.07334705045001674 0.07334705045001674 0.1355790275680582 0.1355790275680582 0.1355790275680582 0.1346711344334 0.1346711344334 0.1346711344334 -0.6901899447826302 
-0.6901899447826302 -0.6901899447826302 -0.6840554134040557 -0.6840554134040557 -0.6840554134040557 -0.608631707968935 -0.608631707968935 -0.608631707968935 -0.6007952471521958 
-0.6007952471521958 -0.6007952471521958 0.3557563111552522 0.3557563111552522 0.3557563111552522 0.3667211233256932 0.3667211233256932 0.3667211233256932 0.1176031236979521 
0.1176031236979521 0.1176031236979521 0.6123396751080967 0.6123396751080967 0.6123396751080967 0.626121831751474 0.626121831751474 0.626121831751474 -0.312246221308959 
-0.312246221308959 -0.312246221308959 -0.3080355607164592 -0.3080355607164592 -0.3080355607164592 -0.3357765401461835 -0.3357765401461835 -0.3357765401461835 -0.3303354494587321 
-0.3303354494587321 -0.3303354494587321 -0.4870115684953462 -0.4870115684953462 -0.4870115684953462 -0.4877249337786727 -0.4877249337786727 -0.4877249337786727 -0.1208868728595009 
-0.1208868728595009 -0.1208868728595009 -0.1161355240725702 -0.1161355240725702 -0.1161355240725702 0.317589824393391 0.317589824393391 0.317589824393391 0.3112697440816714 
0.3112697440816714 0.3112697440816714 -0.6383786643337738 -0.6383786643337738 -0.6383786643337738 -0.6417922971138756 -0.6417922971138756 -0.6417922971138756 0.138110914799154 
0.138110914799154 0.138110914799154 0.1335133255845272 0.1335133255845272 0.1335133255845272 0.2901337626173876 0.2901337626173876 0.2901337626173876 0.2736250332567516 
0.2736250332567516 0.2736250332567516 0.6284665498812692 0.6284665498812692 0.6284665498812692 0.6238058677560483 0.6238058677560483 0.6238058677560483 0.1009603104642355 
0.1009603104642355 0.1009603104642355 0.09561796480097579 0.09561796480097579 0.09561796480097579 -0.2347130867798899 -0.2347130867798899 -0.2347130867798899 -0.2423211060656556 
-0.2423211060656556 -0.2423211060656556 0.3510401013342778 0.3510401013342778 0.3510401013342778 0.3480717399124563 0.3480717399124563 0.3480717399124563 -0.04319463081183193 
-0.04319463081183193 -0.04319463081183193 -0.04471490432885718 -0.04471490432885718 -0.04471490432885718 -0.8441462692926965 -0.8441462692926965 -0.8441462692926965 -0.006828732989202849 
-0.006828732989202849 -0.006828732989202849 -0.233602787587526 -0.233602787587526 -0.233602787587526 -0.3337656841827333 -0.3337656841827333 -0.3337656841827333 -0.3191202080276737 
-0.3191202080276737 -0.3191202080276737 -0.05215567388291732 -0.05215567388291732 -0.05215567388291732 -0.04068310082523224 -0.04068310082523224 -0.04068310082523224 0.4202504106943661 
0.4202504106943661 0.4202504106943661 0.4093096179667484 0.4093096179667484 0.4093096179667484 -0.05342664517299096 -0.05342664517299096 -0.05342664517299096 -0.0541573204351819 
-0.0541573204351819 -0.0541573204351819 0.411538844245665 0.411538844245665 0.411538844245665 0.3961239307743604 0.3961239307743604 0.3961239307743604 -0.04628181226940292 
-0.04628181226940292 -0.04628181226940292 -0.0628530196746076 -0.0628530196746076 -0.0628530196746076 -0.2500836430475281 -0.2500836430475281 -0.2500836430475281 -0.2382465039397021 
-0.2382465039397021 -0.2382465039397021 -0.717161069849099 -0.717161069849099 -0.717161069849099 -0.723112390510087 -0.723112390510087 -0.723112390510087 -0.572986803872445 
-0.572986803872445 -0.572986803872445 -0.560170832320566 -0.560170832320566 -0.560170832320566 -0.2513966835328348 -0.2513966835328348 -0.2513966835328348 -0.2653937795986864 
-0.2653937795986864 -0.2653937795986864 0.2791606956142026 0.2791606956142026 0.2791606956142026 0.30046349191948 0.30046349191948 0.30046349191948 -0.5722503194939466 
-0.5722503194939466 -0.5722503194939466 -0.5124829869118486 -0.5124829869118486 -0.5124829869118486 0.201361986604514 0.201361986604514 0.201361986604514 0.2081666877693308 
0.2081666877693308 0.2081666877693308 0.7610209259397106 0.7610209259397106 0.7610209259397106 0.754564568175633 0.754564568175633 0.754564568175633 0.2572753219666381 
0.2572753219666381 0.2572753219666381 0.2446964567016987 0.2446964567016987 0.2446964567016987 0.03388146941418293 0.03388146941418293 0.03388146941418293 0.02402187320928315 
0.02402187320928315 0.02402187320928315 -0.1611534229887454 -0.1611534229887454 -0.1611534229887454 0.07728589976339781 0.07728589976339781 0.07728589976339781 0.07416554780533779 
0.07416554780533779 0.07416554780533779 0.5278713349364224 0.5278713349364224 0.5278713349364224 0.3872611086339522 0.3872611086339522 0.3872611086339522 -0.3496706923773834 
-0.3496706923773834 -0.3496706923773834 -0.3387369639622274 -0.3387369639622274 -0.3387369639622274 -0.4688531544552907 -0.4688531544552907 -0.4688531544552907 -0.4578660484654984 
-0.4578660484654984 -0.4578660484654984 -0.151833973912842 -0.151833973912842 -0.151833973912842 -0.1540000322859617 -0.1540000322859617 -0.1540000322859617 -0.03582453162315562 
-0.03582453162315562 -0.03582453162315562 -0.03592896490944494 -0.03592896490944494 -0.03592896490944494 0.02433205595851881 0.02433205595851881 0.02433205595851881 0.03646204036594805 
0.03646204036594805 0.03646204036594805 0.158565177320114 0.158565177320114 0.158565177320114 0.1613671038731847 0.1613671038731847 0.1613671038731847 -0.5008615645182499 
-0.5008615645182499 -0.5008615645182499 -0.4848268098041247 -0.4848268098041247 -0.4848268098041247 -0.2016310678230347 -0.2016310678230347 -0.2016310678230347 -0.200205018456765 
-0.200205018456765 -0.200205018456765 -0.7784874767263991 -0.7784874767263991 -0.7784874767263991 -0.7899959616945336 -0.7899959616945336 -0.7899959616945336 0.6404494518734769 
0.6404494518734769 0.6404494518734769 0.6531965712678727 0.6531965712678727 0.6531965712678727 0.7081327239732109 0.7081327239732109 0.7081327239732109 0.6912980647634238 
0.6912980647634238 0.6912980647634238 0.3164407865208022 0.3164407865208022 0.3164407865208022 0.308653522560799 0.308653522560799 0.308653522560799 0.05487045250841589 
0.05487045250841589 0.05487045250841589 0.06802184033686638 0.06802184033686638 0.06802184033686638 -0.3555519434015138 -0.3555519434015138 -0.3555519434015138 -0.336841837491996 
-0.336841837491996 -0.336841837491996 -0.5224130340822014 -0.5224130340822014 -0.5224130340822014 -0.5321743564547512 -0.5321743564547512 -0.5321743564547512 0.05436753609093724 
0.05436753609093724 0.05436753609093724 0.05249148304665316 0.05249148304665316 0.05249148304665316 -0.226832934968917 -0.226832934968917 -0.226832934968917 -0.2390529585858726 
-0.2390529585858726 -0.2390529585858726 -0.710903512567534 -0.710903512567534 -0.710903512567534 -0.7229584898442992 -0.7229584898442992 -0.7229584898442992 0.5870132129460939 
0.5870132129460939 0.5870132129460939 0.6007056441648291 0.6007056441648291 0.6007056441648291 0.3533917369648572 0.3533917369648572 0.3533917369648572 0.3433593332567023 
0.3433593332567023 0.3433593332567023 -0.4751968203382444 -0.4751968203382444 -0.4751968203382444 -0.4797663838341604 -0.4797663838341604 -0.4797663838341604 -0.02003383388401307 
-0.02003383388401307 -0.02003383388401307 -0.0337110611673737 -0.0337110611673737 -0.0337110611673737 0.3041519210561848 0.3041519210561848 0.3041519210561848 0.2991758639498723 
0.2991758639498723 0.2991758639498723 -0.7172994007724556 -0.7172994007724556 -0.7172994007724556 -0.6995191475529683 -0.6995191475529683 -0.6995191475529683 0.478746840603221 
0.478746840603221 0.478746840603221 0.4881677522303327 0.4881677522303327 0.4881677522303327 -0.8031793192934594 -0.8031793192934594 -0.8031793192934594 -0.8884014755486717 
-0.8884014755486717 -0.8884014755486717 0.1511030291192901 0.1511030291192901 0.1511030291192901 0.1402164069733278 0.1402164069733278 0.1402164069733278 0.6284507574927027 
0.6284507574927027 0.6284507574927027 0.6236885672342476 0.6236885672342476 0.6236885672342476 -0.349158856663753 -0.349158856663753 -0.349158856663753 -0.3691832394592438 
-0.3691832394592438 -0.3691832394592438 -0.2826975943632358 -0.2826975943632358 -0.2826975943632358 -0.2915790738873985 -0.2915790738873985 -0.2915790738873985 -0.7543970743460326 
-0.7543970743460326 -0.7543970743460326 -0.7528471830269334 -0.7528471830269334 -0.7528471830269334 -0.2382983746935248 -0.2382983746935248 -0.2382983746935248 -0.2592136385621213 
-0.2592136385621213 -0.2592136385621213 -0.7970123680020698 -0.7970123680020698 -0.7970123680020698 -0.7953986514434188 -0.7953986514434188 -0.7953986514434188 0.7418114986846061 
0.7418114986846061 0.7418114986846061 0.7212611274454022 0.7212611274454022 0.7212611274454022 0.08756852316739218 0.08756852316739218 0.08756852316739218 0.07281975680048562 
0.07281975680048562 0.07281975680048562 -0.5829940771794997 -0.5829940771794997 -0.5829940771794997 -0.6016522407926943 -0.6016522407926943 -0.6016522407926943 -0.6549983087550542 
-0.6549983087550542 -0.6549983087550542 -0.6442203340238934 -0.6442203340238934 -0.6442203340238934 0.3387151687928431 0.3387151687928431 0.3387151687928431 0.3508663535701656 
0.3508663535701656 0.3508663535701656 0.5804968227967866 0.5804968227967866 0.5804968227967866 0.5615762858540736 0.5615762858540736 0.5615762858540736 0.2780815923252301 
0.2780815923252301 0.2780815923252301 0.2690562714829305 0.2690562714829305 0.2690562714829305 -0.03014262516389814 -0.03014262516389814 -0.03014262516389814 -0.04799369898445578 
-0.04799369898445578 -0.04799369898445578 0.1417156209505194 0.1417156209505194 0.1417156209505194 0.1326553436941363 0.1326553436941363 0.1326553436941363 0.1334115678567432 
0.1334115678567432 0.1334115678567432 0.1398124903234972 0.1398124903234972 0.1398124903234972 -0.9240284129776135 -0.9240284129776135 -0.9240284129776135 -0.7935901891533985 
-0.7935901891533985 -0.7935901891533985 -0.5825675312620251 -0.5825675312620251 -0.5825675312620251 0.1148608921681983 0.1148608921681983 0.1148608921681983 0.2300879933210465 
0.2300879933210465 0.2300879933210465 0.3829644639978385 0.3829644639978385 0.3829644639978385 -0.3235411779563073 -0.3235411779563073 -0.3235411779563073 -0.3144742770543419 
-0.3144742770543419 -0.3144742770543419 -0.3139571376400055 -0.3139571376400055 -0.3139571376400055 -0.1293049453441944 -0.1293049453441944 -0.1293049453441944 -0.1353151776735507 
-0.1353151776735507 -0.1353151776735507 -0.1275386868707667 -0.1275386868707667 -0.1275386868707667 -0.8908199794380113 -0.8908199794380113 -0.8908199794380113 -0.8874433156685599 
-0.8874433156685599 -0.8874433156685599 -0.8874458041117745 -0.8874458041117745 -0.8874458041117745 -0.09438074465526453 -0.09438074465526453 -0.09438074465526453 -0.08373318224612269 
-0.08373318224612269 -0.08373318224612269 -0.07655028195629897 -0.07655028195629897 -0.07655028195629897 0.3636869818202901 0.3636869818202901 0.3636869818202901 -0.1090215290159892 
-0.1090215290159892 -0.1090215290159892 -0.1169619704759658 -0.1169619704759658 -0.1169619704759658 -0.1229066485196361 -0.1229066485196361 -0.1229066485196361 0.4814544036540077 
0.4814544036540077 0.4814544036540077 0.4878501979900277 0.4878501979900277 0.4878501979900277 0.4851788419328211 0.4851788419328211 0.4851788419328211 -0.1825887406192998 
-0.1825887406192998 -0.1825887406192998 -0.1913960897051069 -0.1913960897051069 -0.1913960897051069 -0.2052343604005918 -0.2052343604005918 -0.2052343604005918 -0.03005064052802167 
-0.03005064052802167 -0.03005064052802167 -0.01733041492477181 -0.01733041492477181 -0.01733041492477181 -0.007302654190618233 -0.007302654190618233 -0.007302654190618233 -0.1256558408676453 
-0.1256558408676453 -0.1256558408676453 -0.1125132587848864 -0.1125132587848864 -0.1125132587848864 -0.10600060756638 -0.10600060756638 -0.10600060756638 -0.4701367894425206 
-0.4701367894425206 -0.4701367894425206 -0.4941127810878453 -0.4941127810878453 -0.4941127810878453 -0.4899085210103633 -0.4899085210103633 -0.4899085210103633 0.06936297581178602 
0.06936297581178602 0.06936297581178602 0.0609923592164793 0.0609923592164793 0.0609923592164793 0.05663787673271659 0.05663787673271659 0.05663787673271659 -0.7797340464210254 
-0.7797340464210254 -0.7797340464210254 -0.7750258587371939 -0.7750258587371939 -0.7750258587371939 -0.7769815390497677 -0.7769815390497677 -0.7769815390497677 -0.1554851429234869 
-0.1554851429234869 -0.1554851429234869 -0.1622004897395437 -0.1622004897395437 -0.1622004897395437 -0.1639233390414324 -0.1639233390414324 -0.1639233390414324 0.02202642642934698 
0.02202642642934698 0.02202642642934698 0.01860868335755378 0.01860868335755378 0.01860868335755378 0.005619899569757909 0.005619899569757909 0.005619899569757909 -0.5465735765506908 
-0.5465735765506908 -0.5465735765506908 -0.5426724247295232 -0.5426724247295232 -0.5426724247295232 -0.5374860487144892 -0.5374860487144892 -0.5374860487144892 0.1715812060371609 
0.1715812060371609 0.1715812060371609 0.1739432036762062 0.1739432036762062 0.1739432036762062 0.169744213857547 0.169744213857547 0.169744213857547 0.1627621819072307 
0.1627621819072307 0.1627621819072307 0.1683984526886866 0.1683984526886866 0.1683984526886866 0.1737932170027089 0.1737932170027089 0.1737932170027089 0.4258422285265848 
0.4258422285265848 0.4258422285265848 0.4343343836404944 0.4343343836404944 0.4343343836404944 0.4346182859171079 0.4346182859171079 0.4346182859171079 0.8275252899533664 
0.8275252899533664 0.8275252899533664 0.8316206139496856 0.8316206139496856 0.8316206139496856 0.8355591890730714 0.8355591890730714 0.8355591890730714 -0.04550864675695688 
-0.04550864675695688 -0.04550864675695688 -0.04114642056510753 -0.04114642056510753 -0.04114642056510753 -0.03769776698998491 -0.03769776698998491 -0.03769776698998491 0.5010051522728002 
0.5010051522728002 0.5010051522728002 0.5048303620791692 0.5048303620791692 0.5048303620791692 0.5098862803262145 0.5098862803262145 0.5098862803262145 -0.4683739726944389 
-0.4683739726944389 -0.4683739726944389 -0.4800459694835996 -0.4800459694835996 -0.4800459694835996 -0.4862682922147497 -0.4862682922147497 -0.4862682922147497 -0.07457110584756396 
-0.07457110584756396 -0.07457110584756396 -0.06581743623662717 -0.06581743623662717 -0.06581743623662717 -0.06072402123569985 -0.06072402123569985 -0.06072402123569985 -0.0549554334846218 
-0.0549554334846218 -0.0549554334846218 -0.06687908313321723 -0.06687908313321723 -0.06687908313321723 -0.07203514761977842 -0.07203514761977842 -0.07203514761977842 -0.1327126835110684 