Title = RSC/Post/Linear_Advection_2D/Sine_Wave_2D/Quad200/
FileType = Solution
Variables = q
Zone T = RSC/Post/Linear_Advection_2D/Sine_Wave_2D/Quad200/
ZoneType = FETriangle
Nodes = 160000
Elements = 80000
DataPacking = Block
StrandID = 2
SolutionTime = 2
0.0002278166588259368 0.0002278166588259368 0.0002278166588259368 0.0002278166588259368 0.0006187293710607738 0.0006187293710607738 0.0006187293710607738 0.0006187293710607738 0.001009031472106476 0.001009031472106476 
0.001009031472106476 0.001009031472106476 0.001398337780911059 0.001398337780911059 0.001398337780911059 0.001398337780911059 0.001786264099149248 0.001786264099149248 0.001786264099149248 
0.001786264099149248 0.002172427590379856 0.002172427590379856 0.002172427590379856 0.002172427590379856 0.002556447157859119 0.002556447157859119 0.002556447157859119 0.002556447157859119 
0.002937943820637188 0.002937943820637188 0.002937943820637188 0.002937943820637188 0.003316541087566533 0.003316541087566533 0.003316541087566533 0.003316541087566533 0.003691865328853303 
0.003691865328853303 0.003691865328853303 0.003691865328853303 0.004063546144784796 0.004063546144784796 0.004063546144784796 0.004063546144784796 0.004431216731269262 0.004431216731269262 
0.004431216731269262 0.004431216731269262 0.004794514241827225 0.004794514241827225 0.004794514241827225 0.004794514241827225 0.005153080145677246 0.005153080145677246 0.005153080145677246 
0.005153080145677246 0.00550656058156241 0.00550656058156241 0.00550656058156241 0.00550656058156241 0.00585460670696869 0.00585460670696869 0.00585460670696869 0.00585460670696869 
0.006196875042390417 0.006196875042390417 0.006196875042390417 0.006196875042390417 0.006533027810302974 0.006533027810302974 0.006533027810302974 0.006533027810302974 0.006862733268509003 
0.006862733268509003 0.006862733268509003 0.006862733268509003 0.00718566603752663 0.00718566603752663 0.00718566603752663 0.00718566603752663 0.007501507421701402 0.007501507421701402 
0.007501507421701402 0.007501507421701402 0.00780994572371897 0.00780994572371897 0.00780994572371897 0.00780994572371897 0.008110676552213111 0.008110676552213111 0.008110676552213111 
0.008110676552213111 0.008403403122164133 0.008403403122164133 0.008403403122164133 0.008403403122164133 0.008687836547788774 0.008687836547788774 0.008687836547788774 0.008687836547788774 
0.008963696127635914 0.008963696127635914 0.008963696127635914 0.008963696127635914 0.009230709621605406 0.009230709621605406 0.009230709621605406 0.009230709621605406 0.009488613519615347 
0.009488613519615347 0.009488613519615347 0.009488613519615347 0.009737153301655558 0.009737153301655558 0.009737153301655558 0.009737153301655558 0.009976083688967918 0.009976083688967918 
0.009976083688967918 0.009976083688967918 0.01020516888610636 0.01020516888610636 0.01020516888610636 0.01020516888610636 0.01042418281363923 0.01042418281363923 0.01042418281363923 
0.01042418281363923 0.01063290933126176 0.01063290933126176 0.01063290933126176 0.01063290933126176 0.01083114245110121 0.01083114245110121 0.01083114245110121 0.01083114245110121 
0.01101868654100093 0.01101868654100093 0.01101868654100093 0.01101868654100093 0.01119535651758691 0.01119535651758691 0.01119535651758691 0.01119535651758691 0.01136097802892162 
0.01136097802892162 0.01136097802892162 0.01136097802892162 0.01151538762656963 0.01151538762656963 0.01151538762656963 0.01151538762656963 0.01165843292689952 0.01165843292689952 
0.01165843292689952 0.01165843292689952 0.01178997276147057 0.01178997276147057 0.01178997276147057 0.01178997276147057 0.01190987731634679 0.01190987731634679 0.01190987731634679 
0.01190987731634679 0.01201802826020825 0.01201802826020825 0.01201802826020825 0.01201802826020825 0.01211431886113129 0.01211431886113129 0.01211431886113129 0.01211431886113129 
0.01219865409191749 0.01219865409191749 0.01219865409191749 0.01219865409191749 0.01227095072387665 0.01227095072387665 0.01227095072387665 0.01227095072387665 0.01233113740896084 
0.01233113740896084 0.01233113740896084 0.01233113740896084 0.01237915475017882 0.01237915475017882 0.01237915475017882 0.01237915475017882 0.01241495536021193 0.01241495536021193 
0.01241495536021193 0.01241495536021193 0.0124385039081802 0.0124385039081802 0.0124385039081802 0.0124385039081802 0.01244977715451 0.01244977715451 0.01244977715451 
0.01244977715451 0.01244876397386799 0.01244876397386799 0.01244876397386799 0.01244876397386799 0.01243546536614098 0.01243546536614098 0.01243546536614098 0.01243546536614098 
0.0124098944554501 0.0124098944554501 0.0124098944554501 0.0124098944554501 0.01237207647719597 0.01237207647719597 0.01237207647719597 0.01237207647719597 0.0123220487531581 
0.0123220487531581 0.0123220487531581 0.0123220487531581 0.0122598606546594 0.0122598606546594 0.0122598606546594 0.0122598606546594 0.01218557355384597 0.01218557355384597 
0.01218557355384597 0.01218557355384597 0.0120992607631165 0.0120992607631165 0.0120992607631165 0.0120992607631165 0.0120010074627757 0.0120010074627757 0.0120010074627757 
0.0120010074627757 0.01189091061696793 0.01189091061696793 0.01189091061696793 0.01189091061696793 0.01176907887798858 0.01176907887798858 0.01176907887798858 0.01176907887798858 
0.01163563247905485 0.01163563247905485 0.01163563247905485 0.01163563247905485 0.01149070311565084 0.01149070311565084 0.01149070311565084 0.01149070311565084 0.01133443381556144 
0.01133443381556144 0.01133443381556144 0.01133443381556144 0.01116697879771839 0.01116697879771839 0.01116697879771839 0.01116697879771839 0.01098850332000812 0.01098850332000812 
0.01098850332000812 0.01098850332000812 0.01079918351617883 0.01079918351617883 0.01079918351617883 0.01079918351617883 0.0105992062220206 0.0105992062220206 0.0105992062220206 
0.0105992062220206 0.01038876879097857 0.01038876879097857 0.01038876879097857 0.01038876879097857 0.01016807889939146 0.01016807889939146 0.01016807889939146 0.01016807889939146 
0.009937354341537082 0.009937354341537082 0.009937354341537082 0.009937354341537082 0.009696822814699493 0.009696822814699493 0.009696822814699493 0.009696822814699493 0.009446721694455162 
0.009446721694455162 0.009446721694455162 0.009446721694455162 0.00918729780041521 0.00918729780041521 0.00918729780041521 0.00918729780041521 0.00891880715264185 0.00891880715264185 
0.00891880715264185 0.00891880715264185 0.008641514718989824 0.008641514718989824 0.008641514718989824 0.008641514718989824 0.008355694153612526 0.008355694153612526 0.008355694153612526 
0.008355694153612526 0.008061627526900995 0.008061627526900995 0.008061627526900995 0.008061627526900995 0.007759605047112235 0.007759605047112235 0.007759605047112235 0.007759605047112235 
0.007449924773970764 0.007449924773970764 0.007449924773970764 0.007449924773970764 0.007132892324517694 0.007132892324517694 0.007132892324517694 0.007132892324517694 0.00680882057150457 
0.00680882057150457 0.00680882057150457 0.00680882057150457 0.006478029334626432 0.006478029334626432 0.006478029334626432 0.006478029334626432 0.00614084506489681 0.00614084506489681 
0.00614084506489681 0.00614084506489681 0.005797600522481502 0.005797600522481502 0.005797600522481502 0.005797600522481502 0.005448634448303158 0.005448634448303158 0.005448634448303158 
0.005448634448303158 0.005094291229746126 0.005094291229746126 0.005094291229746126 0.005094291229746126 0.004734920560786398 0.004734920560786398 0.004734920560786398 0.004734920560786398 
0.00437087709688723 0.00437087709688723 0.00437087709688723 0.00437087709688723 0.004002520104995745 0.004002520104995745 0.004002520104995745 0.004002520104995745 0.003630213108990713 
0.003630213108990713 0.003630213108990713 0.003630213108990713 0.003254323530928033 0.003254323530928033 0.003254323530928033 0.003254323530928033 0.002875222328439689 0.002875222328439689 
0.002875222328439689 0.002875222328439689 0.002493283628642887 0.002493283628642887 0.002493283628642887 0.002493283628642887 0.002108884358922438 0.002108884358922438 0.002108884358922438 
0.002108884358922438 0.00172240387494838 0.00172240387494838 0.00172240387494838 0.00172240387494838 0.001334223586298113 0.001334223586298113 0.001334223586298113 0.001334223586298113 
0.0009447265800509128 0.0009447265800509128 0.0009447265800509128 0.0009447265800509128 0.0005542972427274365 0.0005542972427274365 0.0005542972427274365 0.0005542972427274365 0.000163320880946495 
0.000163320880946495 0.000163320880946495 0.000163320880946495 -0.0002278166588259716 -0.0002278166588259716 -0.0002278166588259716 -0.0002278166588259716 -0.0006187293710607944 -0.0006187293710607944 
-0.0006187293710607944 -0.0006187293710607944 -0.00100903147210652 -0.00100903147210652 -0.00100903147210652 -0.00100903147210652 -0.001398337780911051 -0.001398337780911051 -0.001398337780911051 
-0.001398337780911051 -0.001786264099149349 -0.001786264099149349 -0.001786264099149349 -0.001786264099149349 -0.00217242759037988 -0.00217242759037988 -0.00217242759037988 -0.00217242759037988 
-0.002556447157859174 -0.002556447157859174 -0.002556447157859174 -0.002556447157859174 -0.002937943820637182 -0.002937943820637182 -0.002937943820637182 -0.002937943820637182 -0.003316541087566567 
-0.003316541087566567 -0.003316541087566567 -0.003316541087566567 -0.003691865328853352 -0.003691865328853352 -0.003691865328853352 -0.003691865328853352 -0.00406354614478492 -0.00406354614478492 
-0.00406354614478492 -0.00406354614478492 -0.004431216731269241 -0.004431216731269241 -0.004431216731269241 -0.004431216731269241 -0.004794514241827444 -0.004794514241827444 -0.004794514241827444 
-0.004794514241827444 -0.00515308014567725 -0.00515308014567725 -0.00515308014567725 -0.00515308014567725 -0.005506560581562467 -0.005506560581562467 -0.005506560581562467 -0.005506560581562467 
-0.005854606706968514 -0.005854606706968514 -0.005854606706968514 -0.005854606706968514 -0.006196875042390552 -0.006196875042390552 -0.006196875042390552 -0.006196875042390552 -0.006533027810303023 
-0.006533027810303023 -0.006533027810303023 -0.006533027810303023 -0.006862733268509053 -0.006862733268509053 -0.006862733268509053 -0.006862733268509053 -0.007185666037526682 -0.007185666037526682 
-0.007185666037526682 -0.007185666037526682 -0.007501507421701178 -0.007501507421701178 -0.007501507421701178 -0.007501507421701178 -0.007809945723718703 -0.007809945723718703 -0.007809945723718703 
-0.007809945723718703 -0.008110676552212877 -0.008110676552212877 -0.008110676552212877 -0.008110676552212877 -0.008403403122164126 -0.008403403122164126 -0.008403403122164126 -0.008403403122164126 
-0.008687836547788709 -0.008687836547788709 -0.008687836547788709 -0.008687836547788709 -0.008963696127636086 -0.008963696127636086 -0.008963696127636086 -0.008963696127636086 -0.009230709621605222 
-0.009230709621605222 -0.009230709621605222 -0.009230709621605222 -0.009488613519615578 -0.009488613519615578 -0.009488613519615578 -0.009488613519615578 -0.009737153301655489 -0.009737153301655489 
-0.009737153301655489 -0.009737153301655489 -0.009976083688967873 -0.009976083688967873 -0.009976083688967873 -0.009976083688967873 -0.01020516888610634 -0.01020516888610634 -0.01020516888610634 
-0.01020516888610634 -0.01042418281363933 -0.01042418281363933 -0.01042418281363933 -0.01042418281363933 -0.01063290933126177 -0.01063290933126177 -0.01063290933126177 -0.01063290933126177 
-0.01083114245110123 -0.01083114245110123 -0.01083114245110123 -0.01083114245110123 -0.01101868654100065 -0.01101868654100065 -0.01101868654100065 -0.01101868654100065 -0.01119535651758711 
-0.01119535651758711 -0.01119535651758711 -0.01119535651758711 -0.0113609780289216 -0.0113609780289216 -0.0113609780289216 -0.0113609780289216 -0.01151538762656963 -0.01151538762656963 
-0.01151538762656963 -0.01151538762656963 -0.01165843292689952 -0.01165843292689952 -0.01165843292689952 -0.01165843292689952 -0.01178997276147063 -0.01178997276147063 -0.01178997276147063 
-0.01178997276147063 -0.01190987731634632 -0.01190987731634632 -0.01190987731634632 -0.01190987731634632 -0.01201802826020757 -0.01201802826020757 -0.01201802826020757 -0.01201802826020757 
-0.01211431886113111 -0.01211431886113111 -0.01211431886113111 -0.01211431886113111 -0.0121986540919172 -0.0121986540919172 -0.0121986540919172 -0.0121986540919172 -0.01227095072387653 
-0.01227095072387653 -0.01227095072387653 -0.01227095072387653 -0.01233113740896086 -0.01233113740896086 -0.01233113740896086 -0.01233113740896086 -0.01237915475017907 -0.01237915475017907 
-0.01237915475017907 -0.01237915475017907 -0.01241495536021199 -0.01241495536021199 -0.01241495536021199 -0.01241495536021199 -0.01243850390818041 -0.01243850390818041 -0.01243850390818041 
-0.01243850390818041 -0.01244977715450995 -0.01244977715450995 -0.01244977715450995 -0.01244977715450995 -0.01244876397386833 -0.01244876397386833 -0.01244876397386833 -0.01244876397386833 
-0.01243546536614136 -0.01243546536614136 -0.01243546536614136 -0.01243546536614136 -0.01240989445545017 -0.01240989445545017 -0.01240989445545017 -0.01240989445545017 -0.01237207647719614 
-0.01237207647719614 -0.01237207647719614 -0.01237207647719614 -0.0123220487531582 -0.0123220487531582 -0.0123220487531582 -0.0123220487531582 -0.01225986065465951 -0.01225986065465951 
-0.01225986065465951 -0.01225986065465951 -0.01218557355384591 -0.01218557355384591 -0.01218557355384591 -0.01218557355384591 -0.01209926076311632 -0.01209926076311632 -0.01209926076311632 
-0.01209926076311632 -0.01200100746277587 -0.01200100746277587 -0.01200100746277587 -0.01200100746277587 -0.01189091061696791 -0.01189091061696791 -0.01189091061696791 -0.01189091061696791 
-0.01176907887798817 -0.01176907887798817 -0.01176907887798817 -0.01176907887798817 -0.01163563247905468 -0.01163563247905468 -0.01163563247905468 -0.01163563247905468 -0.01149070311565061 
-0.01149070311565061 -0.01149070311565061 -0.01149070311565061 -0.01133443381556126 -0.01133443381556126 -0.01133443381556126 -0.01133443381556126 -0.01116697879771849 -0.01116697879771849 
-0.01116697879771849 -0.01116697879771849 -0.01098850332000828 -0.01098850332000828 -0.01098850332000828 -0.01098850332000828 -0.01079918351617915 -0.01079918351617915 -0.01079918351617915 
-0.01079918351617915 -0.01059920622202075 -0.01059920622202075 -0.01059920622202075 -0.01059920622202075 -0.01038876879097885 -0.01038876879097885 -0.01038876879097885 -0.01038876879097885 
-0.01016807889939149 -0.01016807889939149 -0.01016807889939149 -0.01016807889939149 -0.009937354341537493 -0.009937354341537493 -0.009937354341537493 -0.009937354341537493 -0.009696822814699732 
-0.009696822814699732 -0.009696822814699732 -0.009696822814699732 -0.00944672169445537 -0.00944672169445537 -0.00944672169445537 -0.00944672169445537 -0.009187297800415519 -0.009187297800415519 
-0.009187297800415519 -0.009187297800415519 -0.008918807152642084 -0.008918807152642084 -0.008918807152642084 -0.008918807152642084 -0.008641514718989808 -0.008641514718989808 -0.008641514718989808 
-0.008641514718989808 -0.008355694153612602 -0.008355694153612602 -0.008355694153612602 -0.008355694153612602 -0.008061627526901084 -0.008061627526901084 -0.008061627526901084 -0.008061627526901084 
-0.007759605047112366 -0.007759605047112366 -0.007759605047112366 -0.007759605047112366 -0.007449924773970615 -0.007449924773970615 -0.007449924773970615 -0.007449924773970615 -0.007132892324517356 
-0.007132892324517356 -0.007132892324517356 -0.007132892324517356 -0.006808820571504448 -0.006808820571504448 -0.006808820571504448 -0.006808820571504448 -0.006478029334626368 -0.006478029334626368 
-0.006478029334626368 -0.006478029334626368 -0.006140845064896823 -0.006140845064896823 -0.006140845064896823 -0.006140845064896823 -0.005797600522481653 -0.005797600522481653 -0.005797600522481653 
-0.005797600522481653 -0.005448634448303289 -0.005448634448303289 -0.005448634448303289 -0.005448634448303289 -0.005094291229746143 -0.005094291229746143 -0.005094291229746143 -0.005094291229746143 
-0.004734920560786506 -0.004734920560786506 -0.004734920560786506 -0.004734920560786506 -0.004370877096887256 -0.004370877096887256 -0.004370877096887256 -0.004370877096887256 -0.004002520104995769 
-0.004002520104995769 -0.004002520104995769 -0.004002520104995769 -0.003630213108990765 -0.003630213108990765 -0.003630213108990765 -0.003630213108990765 -0.003254323530928142 -0.003254323530928142 
-0.003254323530928142 -0.003254323530928142 -0.002875222328439728 -0.002875222328439728 -0.002875222328439728 -0.002875222328439728 -0.002493283628642941 -0.002493283628642941 -0.002493283628642941 
-0.002493283628642941 -0.00210888435892246 -0.00210888435892246 -0.00210888435892246 -0.00210888435892246 -0.001722403874948404 -0.001722403874948404 -0.001722403874948404 -0.001722403874948404 
-0.001334223586298152 -0.001334223586298152 -0.001334223586298152 -0.001334223586298152 -0.0009447265800509393 -0.0009447265800509393 -0.0009447265800509393 -0.0009447265800509393 -0.0005542972427274583 
-0.0005542972427274583 -0.0005542972427274583 -0.0005542972427274583 -0.0001633208809465231 -0.0001633208809465231 -0.0001633208809465231 -0.0001633208809465231 0.0006428741340625379 0.0006428741340625379 
0.0006428741340625379 0.0006428741340625379 0.001766964260320122 0.001766964260320122 0.001766964260320122 0.001766964260320122 0.002889310606180949 0.002889310606180949 0.002889310606180949 
0.002889310606180949 0.004008805551304173 0.004008805551304173 0.004008805551304173 0.004008805551304173 0.005124344289337219 0.005124344289337219 0.005124344289337219 0.005124344289337219 
0.006234825918226274 0.006234825918226274 0.006234825918226274 0.006234825918226274 0.007339154526673696 0.007339154526673696 0.007339154526673696 0.007339154526673696 0.008436240275670153 
0.008436240275670153 0.008436240275670153 0.008436240275670153 0.009525000474034156 0.009525000474034156 0.009525000474034156 0.009525000474034156 0.01060436064689752 0.01060436064689752 
0.01060436064689752 0.01060436064689752 0.01167325559608237 0.01167325559608237 0.01167325559608237 0.01167325559608237 0.01273063045132311 0.01273063045132311 0.01273063045132311 
0.01273063045132311 0.01377544171129605 0.01377544171129605 0.01377544171129605 0.01377544171129605 0.01480665827342915 0.01480665827342915 0.01480665827342915 0.01480665827342915 
0.0158232624514759 0.0158232624514759 0.0158232624514759 0.0158232624514759 0.01682425097984869 0.01682425097984869 0.01682425097984869 0.01682425097984869 0.01780863600372081 
0.01780863600372081 0.01780863600372081 0.01780863600372081 0.01877544605391991 0.01877544605391991 0.01877544605391991 0.01877544605391991 0.01972372700565091 0.01972372700565091 
0.01972372700565091 0.01972372700565091 0.02065254302010171 0.02065254302010171 0.02065254302010171 0.02065254302010171 0.02156097746800346 0.02156097746800346 0.02156097746800346 
0.02156097746800346 0.02244813383423269 0.02244813383423269 0.02244813383423269 0.02244813383423269 0.0233131366025635 0.0233131366025635 0.0233131366025635 0.0233131366025635 
0.02415513211969666 0.02415513211969666 0.02415513211969666 0.02415513211969666 0.02497328943771212 0.02497328943771212 0.02497328943771212 0.02497328943771212 0.02576680113411443 
0.02576680113411443 0.02576680113411443 0.02576680113411443 0.02653488410866081 0.02653488410866081 0.02653488410866081 0.02653488410866081 0.02727678035618736 0.02727678035618736 
0.02727678035618736 0.02727678035618736 0.02799175771466805 0.02799175771466805 0.02799175771466805 0.02799175771466805 0.02867911058777012 0.02867911058777012 0.02867911058777012 
0.02867911058777012 0.02933816064119311 0.02933816064119311 0.02933816064119311 0.02933816064119311 0.02996825747210224 0.02996825747210224 0.02996825747210224 0.02996825747210224 
0.03056877925099807 0.03056877925099807 0.03056877925099807 0.03056877925099807 0.0311391333353865 0.0311391333353865 0.0311391333353865 0.0311391333353865 0.03167875685464612 
0.03167875685464612 0.03167875685464612 0.03167875685464612 0.03218711726551281 0.03218711726551281 0.03218711726551281 0.03218711726551281 0.03266371287763611 0.03266371287763611 
0.03266371287763611 0.03266371287763611 0.03310807334868715 0.03310807334868715 0.03310807334868715 0.03310807334868715 0.03351976014852912 0.03351976014852912 0.03351976014852912 
0.03351976014852912 0.03389836699199427 0.03389836699199427 0.03389836699199427 0.03389836699199427 0.03424352023983784 0.03424352023983784 0.03424352023983784 0.03424352023983784 
0.0345548792674749 0.0345548792674749 0.0345548792674749 0.0345548792674749 0.03483213680113608 0.03483213680113608 0.03483213680113608 0.03483213680113608 0.03507501922110934 
0.03507501922110934 0.03507501922110934 0.03507501922110934 0.03528328683176989 0.03528328683176989 0.03528328683176989 0.03528328683176989 0.03545673409813012 0.03545673409813012 
0.03545673409813012 0.03545673409813012 0.03559518984867888 0.03559518984867888 0.03559518984867888 0.03559518984867888 0.03569851744430639 0.03569851744430639 0.03569851744430639 
0.03569851744430639 0.03576661491315067 0.03576661491315067 0.03576661491315067 0.03576661491315067 0.03579941505123134 0.03579941505123134 0.03579941505123134 0.03579941505123134 
0.03579688548877229 0.03579688548877229 0.03579688548877229 0.03579688548877229 0.03575902872214624 0.03575902872214624 0.03575902872214624 0.03575902872214624 0.03568588211141102 
0.03568588211141102 0.03568588211141102 0.03568588211141102 0.03557751784344082 0.03557751784344082 0.03557751784344082 0.03557751784344082 0.03543404286068497 0.03543404286068497 
0.03543404286068497 0.03543404286068497 0.03525559875562938 0.03525559875562938 0.03525559875562938 0.03525559875562938 0.03504236163106199 0.03504236163106199 0.03504236163106199 
0.03504236163106199 0.03479454192628038 0.03479454192628038 0.03479454192628038 0.03479454192628038 0.03451238420941345 0.03451238420941345 0.03451238420941345 0.03451238420941345 
0.03419616693606245 0.03419616693606245 0.03419616693606245 0.03419616693606245 0.03384620217449887 0.03384620217449887 0.03384620217449887 0.03384620217449887 0.03346283529769062 
0.03346283529769062 0.03346283529769062 0.03346283529769062 0.03304644464246054 0.03304644464246054 0.03304644464246054 0.03304644464246054 0.03259744113611392 0.03259744113611392 
0.03259744113611392 0.03259744113611392 0.03211626789090283 0.03211626789090283 0.03211626789090283 0.03211626789090283 0.03160339976672735 0.03160339976672735 0.03160339976672735 
0.03160339976672735 0.03105934290250673 0.03105934290250673 0.03105934290250673 0.03105934290250673 0.03048463421668143 0.03048463421668143 0.03048463421668143 0.03048463421668143 
0.02987984087733866 0.02987984087733866 0.02987984087733866 0.02987984087733866 0.02924555974248688 0.02924555974248688 0.02924555974248688 0.02924555974248688 0.02858241677102856 
0.02858241677102856 0.02858241677102856 0.02858241677102856 0.02789106640501398 0.02789106640501398 0.02789106640501398 0.02789106640501398 0.02717219092378708 0.02717219092378708 
0.02717219092378708 0.02717219092378708 0.0264264997706567 0.0264264997706567 0.0264264997706567 0.0264264997706567 0.02565472885276284 0.02565472885276284 0.02565472885276284 
0.02565472885276284 0.02485763981482403 0.02485763981482403 0.02485763981482403 0.02485763981482403 0.02403601928748734 0.02403601928748734 0.02403601928748734 0.02403601928748734 
0.0231906781110177 0.0231906781110177 0.0231906781110177 0.0231906781110177 0.02232245053509698 0.02232245053509698 0.02232245053509698 0.02232245053509698 0.02143219339552014 
0.02143219339552014 0.02143219339552014 0.02143219339552014 0.02052078526860208 0.02052078526860208 0.02052078526860208 0.02052078526860208 0.01958912560412835 0.01958912560412835 
0.01958912560412835 0.01958912560412835 0.01863813383770711 0.01863813383770711 0.01863813383770711 0.01863813383770711 0.01766874848339717 0.01766874848339717 0.01766874848339717 
0.01766874848339717 0.01668192620750799 0.01668192620750799 0.01668192620750799 0.01668192620750799 0.01567864088448531 0.01567864088448531 0.01567864088448531 0.01567864088448531 
0.01465988263581496 0.01465988263581496 0.01465988263581496 0.01465988263581496 0.01362665685289214 0.01362665685289214 0.01362665685289214 0.01362665685289214 0.01257998320482177 
0.01257998320482177 0.01257998320482177 0.01257998320482177 0.01152089463212792 0.01152089463212792 0.01152089463212792 0.01152089463212792 0.01045043632736678 0.01045043632736678 
0.01045043632736678 0.01045043632736678 0.009369664703646871 0.009369664703646871 0.009369664703646871 0.009369664703646871 0.008279646352077792 0.008279646352077792 0.008279646352077792 
0.008279646352077792 0.007181456989173074 0.007181456989173074 0.007181456989173074 0.007181456989173074 0.00607618039524786 0.00607618039524786 0.00607618039524786 0.00607618039524786 
0.004964907344858659 0.004964907344858659 0.004964907344858659 0.004964907344858659 0.003848734530340631 0.003848734530340631 0.003848734530340631 0.003848734530340631 0.002728763479504517 
0.002728763479504517 0.002728763479504517 0.002728763479504517 0.001606099468561695 0.001606099468561695 0.001606099468561695 0.001606099468561695 0.0004818504313501666 0.0004818504313501666 
0.0004818504313501666 0.0004818504313501666 -0.0006428741340626001 -0.0006428741340626001 -0.0006428741340626001 -0.0006428741340626001 -0.001766964260320175 -0.001766964260320175 -0.001766964260320175 
-0.001766964260320175 -0.002889310606181004 -0.002889310606181004 -0.002889310606181004 -0.002889310606181004 -0.004008805551304253 -0.004008805551304253 -0.004008805551304253 -0.004008805551304253 
-0.005124344289337289 -0.005124344289337289 -0.005124344289337289 -0.005124344289337289 -0.006234825918226322 -0.006234825918226322 -0.006234825918226322 -0.006234825918226322 -0.007339154526673743 
-0.007339154526673743 -0.007339154526673743 -0.007339154526673743 -0.008436240275670245 -0.008436240275670245 -0.008436240275670245 -0.008436240275670245 -0.009525000474034177 -0.009525000474034177 
-0.009525000474034177 -0.009525000474034177 -0.01060436064689759 -0.01060436064689759 -0.01060436064689759 -0.01060436064689759 -0.01167325559608235 -0.01167325559608235 -0.01167325559608235 
-0.01167325559608235 -0.01273063045132321 -0.01273063045132321 -0.01273063045132321 -0.01273063045132321 -0.01377544171129609 -0.01377544171129609 -0.01377544171129609 -0.01377544171129609 
-0.01480665827342924 -0.01480665827342924 -0.01480665827342924 -0.01480665827342924 -0.01582326245147589 -0.01582326245147589 -0.01582326245147589 -0.01582326245147589 -0.01682425097984876 
-0.01682425097984876 -0.01682425097984876 -0.01682425097984876 -0.01780863600372068 -0.01780863600372068 -0.01780863600372068 -0.01780863600372068 -0.01877544605391999 -0.01877544605391999 
-0.01877544605391999 -0.01877544605391999 -0.01972372700565098 -0.01972372700565098 -0.01972372700565098 -0.01972372700565098 -0.02065254302010178 -0.02065254302010178 -0.02065254302010178 
-0.02065254302010178 -0.02156097746800343 -0.02156097746800343 -0.02156097746800343 -0.02156097746800343 -0.02244813383423258 -0.02244813383423258 -0.02244813383423258 -0.02244813383423258 
-0.02331313660256348 -0.02331313660256348 -0.02331313660256348 -0.02331313660256348 -0.02415513211969653 -0.02415513211969653 -0.02415513211969653 -0.02415513211969653 -0.02497328943771199 
-0.02497328943771199 -0.02497328943771199 -0.02497328943771199 -0.02576680113411428 -0.02576680113411428 -0.02576680113411428 -0.02576680113411428 -0.02653488410866095 -0.02653488410866095 
-0.02653488410866095 -0.02653488410866095 -0.02727678035618721 -0.02727678035618721 -0.02727678035618721 -0.02727678035618721 -0.02799175771466797 -0.02799175771466797 -0.02799175771466797 
-0.02799175771466797 -0.02867911058777001 -0.02867911058777001 -0.02867911058777001 -0.02867911058777001 -0.02933816064119307 -0.02933816064119307 -0.02933816064119307 -0.02933816064119307 
-0.02996825747210228 -0.02996825747210228 -0.02996825747210228 -0.02996825747210228 -0.03056877925099801 -0.03056877925099801 -0.03056877925099801 -0.03056877925099801 -0.03113913333538635 
-0.03113913333538635 -0.03113913333538635 -0.03113913333538635 -0.03167875685464616 -0.03167875685464616 -0.03167875685464616 -0.03167875685464616 -0.03218711726551259 -0.03218711726551259 
-0.03218711726551259 -0.03218711726551259 -0.03266371287763613 -0.03266371287763613 -0.03266371287763613 -0.03266371287763613 -0.03310807334868697 -0.03310807334868697 -0.03310807334868697 
-0.03310807334868697 -0.03351976014852914 -0.03351976014852914 -0.03351976014852914 -0.03351976014852914 -0.03389836699199421 -0.03389836699199421 -0.03389836699199421 -0.03389836699199421 
-0.0342435202398377 -0.0342435202398377 -0.0342435202398377 -0.0342435202398377 -0.03455487926747493 -0.03455487926747493 -0.03455487926747493 -0.03455487926747493 -0.03483213680113559 
-0.03483213680113559 -0.03483213680113559 -0.03483213680113559 -0.03507501922110907 -0.03507501922110907 -0.03507501922110907 -0.03507501922110907 -0.03528328683176957 -0.03528328683176957 
-0.03528328683176957 -0.03528328683176957 -0.03545673409813007 -0.03545673409813007 -0.03545673409813007 -0.03545673409813007 -0.03559518984867876 -0.03559518984867876 -0.03559518984867876 
-0.03559518984867876 -0.03569851744430631 -0.03569851744430631 -0.03569851744430631 -0.03569851744430631 -0.03576661491315063 -0.03576661491315063 -0.03576661491315063 -0.03576661491315063 
-0.03579941505123159 -0.03579941505123159 -0.03579941505123159 -0.03579941505123159 -0.0357968854887722 -0.0357968854887722 -0.0357968854887722 -0.0357968854887722 -0.03575902872214622 
-0.03575902872214622 -0.03575902872214622 -0.03575902872214622 -0.03568588211141102 -0.03568588211141102 -0.03568588211141102 -0.03568588211141102 -0.035577517843441 -0.035577517843441 
-0.035577517843441 -0.035577517843441 -0.03543404286068511 -0.03543404286068511 -0.03543404286068511 -0.03543404286068511 -0.03525559875562947 -0.03525559875562947 -0.03525559875562947 