Title = Test
FileType = Solution
Variables = q
Zone T = Test
ZoneType = FETriangle
Nodes = 400
Elements = 200
DataPacking = Block
StrandID = 3
SolutionTime = 0.02000000000000032
-0.008387325209687511 -0.008387325209687511 -0.008387325209687511 -0.008387325209687511 0.0307007520122481 0.0307007520122481 0.0307007520122481 0.0307007520122481 0.05806218544568675 0.05806218544568675 
0.05806218544568675 0.05806218544568675 0.06324583749997251 0.06324583749997251 0.06324583749997251 0.06324583749997251 0.04427172927622134 0.04427172927622134 0.04427172927622134 
0.04427172927622134 0.008387325209687522 0.008387325209687522 0.008387325209687522 0.008387325209687522 -0.03070075201224819 -0.03070075201224819 -0.03070075201224819 -0.03070075201224819 
-0.05806218544568646 -0.05806218544568646 -0.05806218544568646 -0.05806218544568646 -0.06324583749997226 -0.06324583749997226 -0.06324583749997226 -0.06324583749997226 -0.04427172927622126 
-0.04427172927622126 -0.04427172927622126 -0.04427172927622126 -0.078186597140873 -0.078186597140873 -0.078186597140873 -0.078186597140873 0.2371997524894585 0.2371997524894585 
0.2371997524894585 0.2371997524894585 0.4619838587918793 0.4619838587918793 0.4619838587918793 0.4619838587918793 0.5103058332896342 0.5103058332896342 0.5103058332896342 
0.5103058332896342 0.3637083241280863 0.3637083241280863 0.3637083241280863 0.3637083241280863 0.07818659714087259 0.07818659714087259 0.07818659714087259 0.07818659714087259 
-0.2371997524894585 -0.2371997524894585 -0.2371997524894585 -0.2371997524894585 -0.461983858791879 -0.461983858791879 -0.461983858791879 -0.461983858791879 -0.510305833289634 
-0.510305833289634 -0.510305833289634 -0.510305833289634 -0.3637083241280862 -0.3637083241280862 -0.3637083241280862 -0.3637083241280862 -0.1181212464289403 -0.1181212464289403 
-0.1181212464289403 -0.1181212464289403 0.3530965096387584 0.3530965096387584 0.3530965096387584 0.3530965096387584 0.6894434003334059 0.6894434003334059 0.6894434003334059 
0.6894434003334059 0.762446345419993 0.762446345419993 0.762446345419993 0.762446345419993 0.5442207011542856 0.5442207011542856 0.5442207011542856 0.5442207011542856 
0.1181212464289396 0.1181212464289396 0.1181212464289396 0.1181212464289396 -0.353096509638758 -0.353096509638758 -0.353096509638758 -0.353096509638758 -0.6894434003334056 
-0.6894434003334056 -0.6894434003334056 -0.6894434003334056 -0.7624463454199933 -0.7624463454199933 -0.7624463454199933 -0.7624463454199933 -0.5442207011542856 -0.5442207011542856 
-0.5442207011542856 -0.5442207011542856 -0.1129375943746545 -0.1129375943746545 -0.1129375943746545 -0.1129375943746545 0.3341224014150072 0.3341224014150072 0.3341224014150072 
0.3341224014150072 0.653558996266872 0.653558996266872 0.653558996266872 0.653558996266872 0.7233582681980575 0.7233582681980575 0.7233582681980575 0.7233582681980575 
0.5168592677208472 0.5168592677208472 0.5168592677208472 0.5168592677208472 0.1129375943746542 0.1129375943746542 0.1129375943746542 0.1129375943746542 -0.3341224014150068 
-0.3341224014150068 -0.3341224014150068 -0.3341224014150068 -0.6535589962668721 -0.6535589962668721 -0.6535589962668721 -0.6535589962668721 -0.7233582681980577 -0.7233582681980577 
-0.7233582681980577 -0.7233582681980577 -0.5168592677208471 -0.5168592677208471 -0.5168592677208471 -0.5168592677208471 -0.0646156198768997 -0.0646156198768997 -0.0646156198768997 
-0.0646156198768997 0.1875248922534594 0.1875248922534594 0.1875248922534594 0.1875248922534594 0.3680372692796588 0.3680372692796588 0.3680372692796588 0.3680372692796588 
0.4079719185677262 0.4079719185677262 0.4079719185677262 0.4079719185677262 0.2920751614184265 0.2920751614184265 0.2920751614184265 0.2920751614184265 0.06461561987689957 
0.06461561987689957 0.06461561987689957 0.06461561987689957 -0.1875248922534593 -0.1875248922534593 -0.1875248922534593 -0.1875248922534593 -0.3680372692796589 -0.3680372692796589 
-0.3680372692796589 -0.3680372692796589 -0.4079719185677262 -0.4079719185677262 -0.4079719185677262 -0.4079719185677262 -0.2920751614184264 -0.2920751614184264 -0.2920751614184264 
-0.2920751614184264 0.008387325209687562 0.008387325209687562 0.008387325209687562 0.008387325209687562 -0.03070075201224822 -0.03070075201224822 -0.03070075201224822 -0.03070075201224822 
-0.05806218544568692 -0.05806218544568692 -0.05806218544568692 -0.05806218544568692 -0.0632458374999727 -0.0632458374999727 -0.0632458374999727 -0.0632458374999727 -0.04427172927622153 
-0.04427172927622153 -0.04427172927622153 -0.04427172927622153 -0.008387325209687518 -0.008387325209687518 -0.008387325209687518 -0.008387325209687518 0.03070075201224835 0.03070075201224835 
0.03070075201224835 0.03070075201224835 0.05806218544568688 0.05806218544568688 0.05806218544568688 0.05806218544568688 0.06324583749997273 0.06324583749997273 0.06324583749997273 
0.06324583749997273 0.04427172927622149 0.04427172927622149 0.04427172927622149 0.04427172927622149 0.07818659714087288 0.07818659714087288 0.07818659714087288 0.07818659714087288 
-0.2371997524894586 -0.2371997524894586 -0.2371997524894586 -0.2371997524894586 -0.4619838587918793 -0.4619838587918793 -0.4619838587918793 -0.4619838587918793 -0.5103058332896341 
-0.5103058332896341 -0.5103058332896341 -0.5103058332896341 -0.3637083241280863 -0.3637083241280863 -0.3637083241280863 -0.3637083241280863 -0.07818659714087271 -0.07818659714087271 
-0.07818659714087271 -0.07818659714087271 0.2371997524894588 0.2371997524894588 0.2371997524894588 0.2371997524894588 0.4619838587918796 0.4619838587918796 0.4619838587918796 
0.4619838587918796 0.5103058332896342 0.5103058332896342 0.5103058332896342 0.5103058332896342 0.3637083241280866 0.3637083241280866 0.3637083241280866 0.3637083241280866 
0.1181212464289405 0.1181212464289405 0.1181212464289405 0.1181212464289405 -0.3530965096387586 -0.3530965096387586 -0.3530965096387586 -0.3530965096387586 -0.6894434003334059 
-0.6894434003334059 -0.6894434003334059 -0.6894434003334059 -0.7624463454199935 -0.7624463454199935 -0.7624463454199935 -0.7624463454199935 -0.5442207011542852 -0.5442207011542852 
-0.5442207011542852 -0.5442207011542852 -0.1181212464289398 -0.1181212464289398 -0.1181212464289398 -0.1181212464289398 0.3530965096387587 0.3530965096387587 0.3530965096387587 
0.3530965096387587 0.689443400333406 0.689443400333406 0.689443400333406 0.689443400333406 0.762446345419993 0.762446345419993 0.762446345419993 0.762446345419993 
0.5442207011542854 0.5442207011542854 0.5442207011542854 0.5442207011542854 0.1129375943746545 0.1129375943746545 0.1129375943746545 0.1129375943746545 -0.3341224014150074 
-0.3341224014150074 -0.3341224014150074 -0.3341224014150074 -0.6535589962668715 -0.6535589962668715 -0.6535589962668715 -0.6535589962668715 -0.7233582681980573 -0.7233582681980573 
-0.7233582681980573 -0.7233582681980573 -0.5168592677208472 -0.5168592677208472 -0.5168592677208472 -0.5168592677208472 -0.112937594374654 -0.112937594374654 -0.112937594374654 
-0.112937594374654 0.3341224014150074 0.3341224014150074 0.3341224014150074 0.3341224014150074 0.6535589962668722 0.6535589962668722 0.6535589962668722 0.6535589962668722 
0.723358268198057 0.723358268198057 0.723358268198057 0.723358268198057 0.5168592677208472 0.5168592677208472 0.5168592677208472 0.5168592677208472 0.0646156198768997 
0.0646156198768997 0.0646156198768997 0.0646156198768997 -0.1875248922534591 -0.1875248922534591 -0.1875248922534591 -0.1875248922534591 -0.368037269279659 -0.368037269279659 
-0.368037269279659 -0.368037269279659 -0.407971918567726 -0.407971918567726 -0.407971918567726 -0.407971918567726 -0.2920751614184264 -0.2920751614184264 -0.2920751614184264 
-0.2920751614184264 -0.06461561987689968 -0.06461561987689968 -0.06461561987689968 -0.06461561987689968 0.1875248922534594 0.1875248922534594 0.1875248922534594 0.1875248922534594 
0.3680372692796593 0.3680372692796593 0.3680372692796593 0.3680372692796593 0.4079719185677262 0.4079719185677262 0.4079719185677262 0.4079719185677262 0.2920751614184265 
0.2920751614184265 0.2920751614184265 0.2920751614184265 