Title = Test
FileType = Solution
Variables = q
Zone T = Test
ZoneType = FETriangle
Nodes = 400
Elements = 200
DataPacking = Block
StrandID = 11
SolutionTime = -2.299999999999994
-38896.68937807774 -38896.68937807774 -38896.68937807774 -38896.68937807774 -82233.55303553355 -82233.55303553355 -82233.55303553355 -82233.55303553355 -94161.30122492336 -94161.30122492336 
-94161.30122492336 -94161.30122492336 -70120.15486521169 -70120.15486521169 -70120.15486521169 -70120.15486521169 -19298.72539285338 -19298.72539285338 -19298.72539285338 
-19298.72539285338 38897.50788694402 38897.50788694402 38897.50788694402 38897.50788694402 82233.35466677533 82233.35466677533 82233.35466677533 82233.35466677533 
94160.8029404214 94160.8029404214 94160.8029404214 94160.8029404214 70121.15869506542 70121.15869506542 70121.15869506542 70121.15869506542 19297.59970742487 
19297.59970742487 19297.59970742487 19297.59970742487 -82299.25755456061 -82299.25755456061 -82299.25755456061 -82299.25755456061 -93907.26655460513 -93907.26655460513 
-93907.26655460513 -93907.26655460513 -69644.57159060889 -69644.57159060889 -69644.57159060889 -69644.57159060889 -18782.64944107673 -18782.64944107673 -18782.64944107673 
-18782.64944107673 39256.96804978735 39256.96804978735 39256.96804978735 39256.96804978735 82298.43378331602 82298.43378331602 82298.43378331602 82298.43378331602 
93907.2877801158 93907.2877801158 93907.2877801158 93907.2877801158 69645.36229318631 69645.36229318631 69645.36229318631 69645.36229318631 18781.35002962401 
18781.35002962401 18781.35002962401 18781.35002962401 -39255.65679521289 -39255.65679521289 -39255.65679521289 -39255.65679521289 -94266.11625405477 -94266.11625405477 
-94266.11625405477 -94266.11625405477 -69710.29151622411 -69710.29151622411 -69710.29151622411 -69710.29151622411 -18528.65157388686 -18528.65157388686 -18528.65157388686 
-18528.65157388686 39732.56516230442 39732.56516230442 39732.56516230442 39732.56516230442 82814.54232782559 82814.54232782559 82814.54232782559 82814.54232782559 
94266.69335532203 94266.69335532203 94266.69335532203 94266.69335532203 69710.51237005503 69710.51237005503 69710.51237005503 69710.51237005503 18527.71574186415 
18527.71574186415 18527.71574186415 18527.71574186415 -39731.2735875556 -39731.2735875556 -39731.2735875556 -39731.2735875556 -82815.6960256103 -82815.6960256103 
-82815.6960256103 -82815.6960256103 -70226.71752224489 -70226.71752224489 -70226.71752224489 -70226.71752224489 -18887.62673796675 -18887.62673796675 -18887.62673796675 
-18887.62673796675 39667.04666425624 39667.04666425624 39667.04666425624 39667.04666425624 83068.32025620856 83068.32025620856 83068.32025620856 83068.32025620856 
94742.51188103965 94742.51188103965 94742.51188103965 94742.51188103965 70226.39717552569 70226.39717552569 70226.39717552569 70226.39717552569 18887.30816494132 
18887.30816494132 18887.30816494132 18887.30816494132 -39666.20989328135 -39666.20989328135 -39666.20989328135 -39666.20989328135 -83069.35370479607 -83069.35370479607 
-83069.35370479607 -83069.35370479607 -94741.67628372637 -94741.67628372637 -94741.67628372637 -94741.67628372637 -19363.18625667491 -19363.18625667491 -19363.18625667491 
-19363.18625667491 39150.74005667754 39150.74005667754 39150.74005667754 39150.74005667754 82709.13674957246 82709.13674957246 82709.13674957246 82709.13674957246 
94677.2454123405 94677.2454123405 94677.2454123405 94677.2454123405 70479.89867174179 70479.89867174179 70479.89867174179 70479.89867174179 19363.40273582005 
19363.40273582005 19363.40273582005 19363.40273582005 -39150.53326180451 -39150.53326180451 -39150.53326180451 -39150.53326180451 -82709.68839258107 -82709.68839258107 
-82709.68839258107 -82709.68839258107 -94676.56109968686 -94676.56109968686 -94676.56109968686 -94676.56109968686 -70480.45461536151 -70480.45461536151 -70480.45461536151 
-70480.45461536151 38896.88854591041 38896.88854591041 38896.88854591041 38896.88854591041 82233.58192826706 82233.58192826706 82233.58192826706 82233.58192826706 
94161.01050179036 94161.01050179036 94161.01050179036 94161.01050179036 70120.60676531229 70120.60676531229 70120.60676531229 70120.60676531229 19298.25846532075 
19298.25846532075 19298.25846532075 19298.25846532075 -38897.13312496751 -38897.13312496751 -38897.13312496751 -38897.13312496751 -82233.57669423311 -82233.57669423311 
-82233.57669423311 -82233.57669423311 -94160.77377990751 -94160.77377990751 -94160.77377990751 -94160.77377990751 -70120.99397579464 -70120.99397579464 -70120.99397579464 
-70120.99397579464 -19297.86863173442 -19297.86863173442 -19297.86863173442 -19297.86863173442 82299.04216462663 82299.04216462663 82299.04216462663 82299.04216462663 
93907.10012904015 93907.10012904015 93907.10012904015 93907.10012904015 69645.06091454746 69645.06091454746 69645.06091454746 69645.06091454746 18782.02993586861 
18782.02993586861 18782.02993586861 18782.02993586861 -39256.42408707428 -39256.42408707428 -39256.42408707428 -39256.42408707428 -82298.75860873662 -82298.75860873662 
-82298.75860873662 -82298.75860873662 -93907.25857450745 -93907.25857450745 -93907.25857450745 -93907.25857450745 -69645.08894335944 -69645.08894335944 -69645.08894335944 
-69645.08894335944 -18781.82718406404 -18781.82718406404 -18781.82718406404 -18781.82718406404 39256.12425368609 39256.12425368609 39256.12425368609 39256.12425368609 
94266.28002498597 94266.28002498597 94266.28002498597 94266.28002498597 69710.51538927833 69710.51538927833 69710.51538927833 69710.51538927833 18528.16595729216 
18528.16595729216 18528.16595729216 18528.16595729216 -39732.02766325812 -39732.02766325812 -39732.02766325812 -39732.02766325812 -82814.94539949857 -82814.94539949857 
-82814.94539949857 -82814.94539949857 -94266.5490830637 -94266.5490830637 -94266.5490830637 -94266.5490830637 -69710.33490896822 -69710.33490896822 -69710.33490896822 
-69710.33490896822 -18528.18812826152 -18528.18812826152 -18528.18812826152 -18528.18812826152 39731.88427640122 39731.88427640122 39731.88427640122 39731.88427640122 
82815.1995350705 82815.1995350705 82815.1995350705 82815.1995350705 70226.66747628881 70226.66747628881 70226.66747628881 70226.66747628881 18887.42346575528 
18887.42346575528 18887.42346575528 18887.42346575528 -39666.73164398484 -39666.73164398484 -39666.73164398484 -39666.73164398484 -83068.60006318308 -83068.60006318308 
-83068.60006318308 -83068.60006318308 -94742.3658399446 -94742.3658399446 -94742.3658399446 -94742.3658399446 -70226.34585107189 -70226.34585107189 -70226.34585107189 
-70226.34585107189 -18887.59047737381 -18887.59047737381 -18887.59047737381 -18887.59047737381 39666.67976123777 39666.67976123777 39666.67976123777 39666.67976123777 
83068.84986556554 83068.84986556554 83068.84986556554 83068.84986556554 94742.01330673444 94742.01330673444 94742.01330673444 94742.01330673444 19363.08924539146 
19363.08924539146 19363.08924539146 19363.08924539146 -39150.62378016648 -39150.62378016648 -39150.62378016648 -39150.62378016648 -82709.16408318044 -82709.16408318044 
-82709.16408318044 -82709.16408318044 -94677.33604605703 -94677.33604605703 -94677.33604605703 -94677.33604605703 -70479.71838899024 -70479.71838899024 -70479.71838899024 
-70479.71838899024 -19363.64821940143 -19363.64821940143 -19363.64821940143 -19363.64821940143 39150.83061699234 39150.83061699234 39150.83061699234 39150.83061699234 
82709.38876358813 82709.38876358813 82709.38876358813 82709.38876358813 94676.76653265752 94676.76653265752 94676.76653265752 94676.76653265752 70480.41535913863 
70480.41535913863 70480.41535913863 70480.41535913863 