Title = Test
FileType = Solution
Variables = q
Zone T = Test
ZoneType = FETriangle
Nodes = 400
Elements = 200
DataPacking = Block
StrandID = 6
SolutionTime = -0.3999999999999984
2.116917976468413 2.116917976468413 2.116917976468413 2.116917976468413 0.400611147791791 0.400611147791791 0.400611147791791 0.400611147791791 -1.468715523069669 -1.468715523069669 
-1.468715523069669 -1.468715523069669 -2.777042783923373 -2.777042783923373 -2.777042783923373 -2.777042783923373 -3.024634089529648 -3.024634089529648 -3.024634089529648 
-3.024634089529648 -2.116917976468951 -2.116917976468951 -2.116917976468951 -2.116917976468951 -0.4006111477916416 -0.4006111477916416 -0.4006111477916416 -0.4006111477916416 
1.468715523069909 1.468715523069909 1.468715523069909 1.468715523069909 2.777042783922525 2.777042783922525 2.777042783922525 2.777042783922525 3.02463408953067 
3.02463408953067 3.02463408953067 3.02463408953067 1.724508214296475 1.724508214296475 1.724508214296475 1.724508214296475 0.1090349706433716 0.1090349706433716 
0.1090349706433716 0.1090349706433716 -1.548085925833601 -1.548085925833601 -1.548085925833601 -1.548085925833601 -2.613890616146563 -2.613890616146563 -2.613890616146563 
-2.613890616146563 -2.681277933967355 -2.681277933967355 -2.681277933967355 -2.681277933967355 -1.724508214296408 -1.724508214296408 -1.724508214296408 -1.724508214296408 
-0.1090349706431777 -0.1090349706431777 -0.1090349706431777 -0.1090349706431777 1.548085925833263 1.548085925833263 1.548085925833263 1.548085925833263 2.613890616147158 
2.613890616147158 2.613890616147158 2.613890616147158 2.681277933966848 2.681277933966848 2.681277933966848 2.681277933966848 0.6733949281413729 0.6733949281413729 
0.6733949281413729 0.6733949281413729 -0.2241888593283415 -0.2241888593283415 -0.2241888593283415 -0.2241888593283415 -1.036140122434198 -1.036140122434198 -1.036140122434198 
-1.036140122434198 -1.452321075877478 -1.452321075877478 -1.452321075877478 -1.452321075877478 -1.313764740912998 -1.313764740912998 -1.313764740912998 -1.313764740912998 
-0.6733949281416566 -0.6733949281416566 -0.6733949281416566 -0.6733949281416566 0.2241888593282935 0.2241888593282935 0.2241888593282935 0.2241888593282935 1.036140122434418 
1.036140122434418 1.036140122434418 1.036140122434418 1.452321075877008 1.452321075877008 1.452321075877008 1.452321075877008 1.313764740913572 1.313764740913572 
1.313764740913572 1.313764740913572 -0.6349323327113419 -0.6349323327113419 -0.6349323327113419 -0.6349323327113419 -0.4717801649362293 -0.4717801649362293 -0.4717801649362293 
-0.4717801649362293 -0.1284240093719801 -0.1284240093719801 -0.1284240093719801 -0.1284240093719801 0.263985752799381 0.263985752799381 0.263985752799381 0.263985752799381 
0.5555619299480303 0.5555619299480303 0.5555619299480303 0.5555619299480303 0.6349323327116914 0.6349323327116914 0.6349323327116914 0.6349323327116914 0.4717801649359792 
0.4717801649359792 0.4717801649359792 0.4717801649359792 0.1284240093722118 0.1284240093722118 0.1284240093722118 0.1284240093722118 -0.2639857527993132 -0.2639857527993132 
-0.2639857527993132 -0.2639857527993132 -0.5555619299484368 -0.5555619299484368 -0.5555619299484368 -0.5555619299484368 -1.700737023025582 -1.700737023025582 -1.700737023025582 
-1.700737023025582 -0.5391674827554453 -0.5391674827554453 -0.5391674827554453 -0.5391674827554453 0.8283457102976219 0.8283457102976219 0.8283457102976219 0.8283457102976219 
1.879458996453078 1.879458996453078 1.879458996453078 1.879458996453078 2.212682826424667 2.212682826424667 2.212682826424667 2.212682826424667 1.700737023025369 
1.700737023025369 1.700737023025369 1.700737023025369 0.5391674827557572 0.5391674827557572 0.5391674827557572 0.5391674827557572 -0.8283457102979922 -0.8283457102979922 
-0.8283457102979922 -0.8283457102979922 -1.879458996452978 -1.879458996452978 -1.879458996452978 -1.879458996452978 -2.212682826424478 -2.212682826424478 -2.212682826424478 
-2.212682826424478 -2.11691797646849 -2.11691797646849 -2.11691797646849 -2.11691797646849 -0.4006111477917811 -0.4006111477917811 -0.4006111477917811 -0.4006111477917811 
1.468715523069799 1.468715523069799 1.468715523069799 1.468715523069799 2.777042783922906 2.777042783922906 2.777042783922906 2.777042783922906 3.024634089530251 
3.024634089530251 3.024634089530251 3.024634089530251 2.116917976468657 2.116917976468657 2.116917976468657 2.116917976468657 0.4006111477915382 0.4006111477915382 
0.4006111477915382 0.4006111477915382 -1.468715523069572 -1.468715523069572 -1.468715523069572 -1.468715523069572 -2.777042783922917 -2.777042783922917 -2.777042783922917 
-2.777042783922917 -3.024634089530407 -3.024634089530407 -3.024634089530407 -3.024634089530407 -1.724508214296556 -1.724508214296556 -1.724508214296556 -1.724508214296556 
-0.1090349706432777 -0.1090349706432777 -0.1090349706432777 -0.1090349706432777 1.548085925833377 1.548085925833377 1.548085925833377 1.548085925833377 2.613890616147067 
2.613890616147067 2.613890616147067 2.613890616147067 2.681277933966827 2.681277933966827 2.681277933966827 2.681277933966827 1.724508214296597 1.724508214296597 
1.724508214296597 1.724508214296597 0.1090349706433515 0.1090349706433515 0.1090349706433515 0.1090349706433515 -1.548085925833523 -1.548085925833523 -1.548085925833523 
-1.548085925833523 -2.613890616147012 -2.613890616147012 -2.613890616147012 -2.613890616147012 -2.681277933966852 -2.681277933966852 -2.681277933966852 -2.681277933966852 
-0.6733949281415739 -0.6733949281415739 -0.6733949281415739 -0.6733949281415739 0.2241888593285766 0.2241888593285766 0.2241888593285766 0.2241888593285766 1.036140122434194 
1.036140122434194 1.036140122434194 1.036140122434194 1.452321075877174 1.452321075877174 1.452321075877174 1.452321075877174 1.313764740913296 1.313764740913296 
1.313764740913296 1.313764740913296 0.67339492814163 0.67339492814163 0.67339492814163 0.67339492814163 -0.224188859328467 -0.224188859328467 -0.224188859328467 
-0.224188859328467 -1.0361401224344 -1.0361401224344 -1.0361401224344 -1.0361401224344 -1.452321075876851 -1.452321075876851 -1.452321075876851 -1.452321075876851 
-1.313764740913584 -1.313764740913584 -1.313764740913584 -1.313764740913584 0.63493233271115 0.63493233271115 0.63493233271115 0.63493233271115 0.471780164936269 
0.471780164936269 0.471780164936269 0.471780164936269 0.1284240093720549 0.1284240093720549 0.1284240093720549 0.1284240093720549 -0.2639857527996333 -0.2639857527996333 
-0.2639857527996333 -0.2639857527996333 -0.5555619299475906 -0.5555619299475906 -0.5555619299475906 -0.5555619299475906 -0.6349323327121068 -0.6349323327121068 -0.6349323327121068 
-0.6349323327121068 -0.471780164935853 -0.471780164935853 -0.471780164935853 -0.471780164935853 -0.1284240093718797 -0.1284240093718797 -0.1284240093718797 -0.1284240093718797 
0.2639857527986967 0.2639857527986967 0.2639857527986967 0.2639857527986967 0.5555619299489026 0.5555619299489026 0.5555619299489026 0.5555619299489026 1.700737023025992 
1.700737023025992 1.700737023025992 1.700737023025992 0.5391674827551991 0.5391674827551991 0.5391674827551991 0.5391674827551991 -0.8283457102975984 -0.8283457102975984 
-0.8283457102975984 -0.8283457102975984 -1.879458996452672 -1.879458996452672 -1.879458996452672 -1.879458996452672 -2.212682826425373 -2.212682826425373 -2.212682826425373 
-2.212682826425373 -1.700737023024867 -1.700737023024867 -1.700737023024867 -1.700737023024867 -0.5391674827557577 -0.5391674827557577 -0.5391674827557577 -0.5391674827557577 
0.8283457102974846 0.8283457102974846 0.8283457102974846 0.8283457102974846 1.87945899645378 1.87945899645378 1.87945899645378 1.87945899645378 2.212682826423785 
2.212682826423785 2.212682826423785 2.212682826423785 