Title = Test
FileType = Solution
Variables = q
Zone T = Test
ZoneType = FETriangle
Nodes = 400
Elements = 200
DataPacking = Block
StrandID = 7
SolutionTime = -0.6599999999999978
-6.852912768734709 -6.852912768734709 -6.852912768734709 -6.852912768734709 -7.741492854099116 -7.741492854099116 -7.741492854099116 -7.741492854099116 -5.673085793020679 -5.673085793020679 
-5.673085793020679 -5.673085793020679 -1.437752780013141 -1.437752780013141 -1.437752780013141 -1.437752780013141 3.346752927557113 3.346752927557113 3.346752927557113 
3.346752927557113 6.852912768618336 6.852912768618336 6.852912768618336 6.852912768618336 7.741492854177837 7.741492854177837 7.741492854177837 7.741492854177837 
5.67308579299679 5.67308579299679 5.67308579299679 5.67308579299679 1.437752779968665 1.437752779968665 1.437752779968665 1.437752779968665 -3.346752927450896 
-3.346752927450896 -3.346752927450896 -3.346752927450896 -4.379533975271942 -4.379533975271942 -4.379533975271942 -4.379533975271942 -3.296339030307925 -3.296339030307925 
-3.296339030307925 -3.296339030307925 -0.9540546141776517 -0.9540546141776517 -0.9540546141776517 -0.9540546141776517 1.752646237466794 1.752646237466794 1.752646237466794 
1.752646237466794 3.789895796558396 3.789895796558396 3.789895796558396 3.789895796558396 4.379533975338656 4.379533975338656 4.379533975338656 4.379533975338656 
3.296339030279223 3.296339030279223 3.296339030279223 3.296339030279223 0.9540546141680288 0.9540546141680288 0.9540546141680288 0.9540546141680288 -1.752646237417219 
-1.752646237417219 -1.752646237417219 -1.752646237417219 -3.789895796636482 -3.789895796636482 -3.789895796636482 -3.789895796636482 -0.2333220582534111 -0.2333220582534111 
-0.2333220582534111 -0.2333220582534111 2.407904264689695 2.407904264689695 2.407904264689695 2.407904264689695 4.129393000127788 4.129393000127788 4.129393000127788 
4.129393000127788 4.273593962434942 4.273593962434942 4.273593962434942 4.273593962434942 2.785427285247066 2.785427285247066 2.785427285247066 2.785427285247066 
0.2333220582029465 0.2333220582029465 0.2333220582029465 0.2333220582029465 -2.407904264668437 -2.407904264668437 -2.407904264668437 -2.407904264668437 -4.1293930001186 
-4.1293930001186 -4.1293930001186 -4.1293930001186 -4.273593962473187 -4.273593962473187 -4.273593962473187 -4.273593962473187 -2.785427285188826 -2.785427285188826 
-2.785427285188826 -2.785427285188826 4.002010954786897 4.002010954786897 4.002010954786897 4.002010954786897 7.192409972165806 7.192409972165806 7.192409972165806 
7.192409972165806 7.635552841331458 7.635552841331458 7.635552841331458 7.635552841331458 5.162174047884408 5.162174047884408 5.162174047884408 5.162174047884408 
0.7170202240763413 0.7170202240763413 0.7170202240763413 0.7170202240763413 -4.002010954747625 -4.002010954747625 -4.002010954747625 -4.002010954747625 -7.192409972195586 
-7.192409972195586 -7.192409972195586 -7.192409972195586 -7.63555284131616 -7.63555284131616 -7.63555284131616 -7.63555284131616 -5.162174047880582 -5.162174047880582 
-5.162174047880582 -5.162174047880582 -0.7170202241049421 -0.7170202241049421 -0.7170202241049421 -0.7170202241049421 6.708711806337179 6.708711806337179 6.708711806337179 
6.708711806337179 9.229659531400696 9.229659531400696 9.229659531400696 9.229659531400696 8.225191019943768 8.225191019943768 8.225191019943768 8.225191019943768 
4.078979102950615 4.078979102950615 4.078979102950615 4.078979102950615 -1.625264192072889 -1.625264192072889 -1.625264192072889 -1.625264192072889 -6.708711806360483 
-6.708711806360483 -6.708711806360483 -6.708711806360483 -9.229659531371965 -9.229659531371965 -9.229659531371965 -9.229659531371965 -8.225191019974559 -8.225191019974559 
-8.225191019974559 -8.225191019974559 -4.078979102929372 -4.078979102929372 -4.078979102929372 -4.078979102929372 1.6252641920771 1.6252641920771 1.6252641920771 
1.6252641920771 6.85291276869355 6.85291276869355 6.85291276869355 6.85291276869355 7.741492854121693 7.741492854121693 7.741492854121693 7.741492854121693 
5.673085793015137 5.673085793015137 5.673085793015137 5.673085793015137 1.437752779992688 1.437752779992688 1.437752779992688 1.437752779992688 -3.346752927505966 
-3.346752927505966 -3.346752927505966 -3.346752927505966 -6.852912768676944 -6.852912768676944 -6.852912768676944 -6.852912768676944 -7.74149285414636 -7.74149285414636 
-7.74149285414636 -7.74149285414636 -5.673085792985379 -5.673085792985379 -5.673085792985379 -5.673085792985379 -1.437752780014014 -1.437752780014014 -1.437752780014014 
-1.437752780014014 3.346752927505467 3.346752927505467 3.346752927505467 3.346752927505467 4.379533975284066 4.379533975284066 4.379533975284066 4.379533975284066 
3.296339030307649 3.296339030307649 3.296339030307649 3.296339030307649 0.9540546141672339 0.9540546141672339 0.9540546141672339 0.9540546141672339 -1.752646237434995 
-1.752646237434995 -1.752646237434995 -1.752646237434995 -3.789895796612671 -3.789895796612671 -3.789895796612671 -3.789895796612671 -4.379533975287684 -4.379533975287684 
-4.379533975287684 -4.379533975287684 -3.296339030298642 -3.296339030298642 -3.296339030298642 -3.296339030298642 -0.9540546141829337 -0.9540546141829337 -0.9540546141829337 
-0.9540546141829337 1.752646237448325 1.752646237448325 1.752646237448325 1.752646237448325 3.78989579660976 3.78989579660976 3.78989579660976 3.78989579660976 
0.2333220582513798 0.2333220582513798 0.2333220582513798 0.2333220582513798 -2.407904264681112 -2.407904264681112 -2.407904264681112 -2.407904264681112 -4.129393000132762 
-4.129393000132762 -4.129393000132762 -4.129393000132762 -4.273593962451734 -4.273593962451734 -4.273593962451734 -4.273593962451734 -2.785427285209658 -2.785427285209658 
-2.785427285209658 -2.785427285209658 -0.2333220582349789 -0.2333220582349789 -0.2333220582349789 -0.2333220582349789 2.4079042646741 2.4079042646741 2.4079042646741 
2.4079042646741 4.129393000131369 4.129393000131369 4.129393000131369 4.129393000131369 4.273593962463218 4.273593962463218 4.273593962463218 4.273593962463218 
2.785427285190123 2.785427285190123 2.785427285190123 2.785427285190123 -4.002010954815431 -4.002010954815431 -4.002010954815431 -4.002010954815431 -7.192409972155687 
-7.192409972155687 -7.192409972155687 -7.192409972155687 -7.635552841331927 -7.635552841331927 -7.635552841331927 -7.635552841331927 -5.16217404788469 -5.16217404788469 
-5.16217404788469 -5.16217404788469 -0.7170202240705383 -0.7170202240705383 -0.7170202240705383 -0.7170202240705383 4.002010954728387 4.002010954728387 4.002010954728387 
4.002010954728387 7.192409972221311 7.192409972221311 7.192409972221311 7.192409972221311 7.635552841306741 7.635552841306741 7.635552841306741 7.635552841306741 
5.162174047859109 5.162174047859109 5.162174047859109 5.162174047859109 0.7170202241428134 0.7170202241428134 0.7170202241428134 0.7170202241428134 -6.708711806277926 
-6.708711806277926 -6.708711806277926 -6.708711806277926 -9.229659531437862 -9.229659531437862 -9.229659531437862 -9.229659531437862 -8.225191019926593 -8.225191019926593 
-8.225191019926593 -8.225191019926593 -4.078979102943852 -4.078979102943852 -4.078979102943852 -4.078979102943852 1.625264192035351 1.625264192035351 1.625264192035351 
1.625264192035351 6.708711806415756 6.708711806415756 6.708711806415756 6.708711806415756 9.229659531331123 9.229659531331123 9.229659531331123 9.229659531331123 
8.22519101997273 8.22519101997273 8.22519101997273 8.22519101997273 4.078979102977823 4.078979102977823 4.078979102977823 4.078979102977823 -1.625264192146712 
-1.625264192146712 -1.625264192146712 -1.625264192146712 