Title = Test
FileType = Solution
Variables = q
Zone T = Test
ZoneType = FETriangle
Nodes = 400
Elements = 200
DataPacking = Block
StrandID = 12
SolutionTime = -2.859999999999993
1142792.798001345 1142792.798001345 1142792.798001345 1142792.798001345 2283413.019710421 2283413.019710421 2283413.019710421 2283413.019710421 2551443.822104894 2551443.822104894 
2551443.822104894 2551443.822104894 1846037.162993042 1846037.162993042 1846037.162993042 1846037.162993042 433573.5406874744 433573.5406874744 433573.5406874744 
433573.5406874744 -1142012.93892688 -1142012.93892688 -1142012.93892688 -1142012.93892688 -2283994.31327676 -2283994.31327676 -2283994.31327676 -2283994.31327676 
-2551283.330371142 -2551283.330371142 -2551283.330371142 -2551283.330371142 -1845715.518167159 -1845715.518167159 -1845715.518167159 -1845715.518167159 -434254.2427538564 
-434254.2427538564 -434254.2427538564 -434254.2427538564 2286059.068922878 2286059.068922878 2286059.068922878 2286059.068922878 2554593.438163713 2554593.438163713 
2554593.438163713 2554593.438163713 1847597.659706957 1847597.659706957 1847597.659706957 1847597.659706957 433612.1855746697 433612.1855746697 433612.1855746697 
433612.1855746697 -1143712.19488792 -1143712.19488792 -1143712.19488792 -1143712.19488792 -2287069.464603681 -2287069.464603681 -2287069.464603681 -2287069.464603681 
-2553937.593932632 -2553937.593932632 -2553937.593932632 -2553937.593932632 -1847648.238017082 -1847648.238017082 -1847648.238017082 -1847648.238017082 -434186.3533992725 
-434186.3533992725 -434186.3533992725 -434186.3533992725 1144691.4924708 1144691.4924708 1144691.4924708 1144691.4924708 2556680.755211832 2556680.755211832 
2556680.755211832 2556680.755211832 1850116.082076691 1850116.082076691 1850116.082076691 1850116.082076691 436808.8018729229 436808.8018729229 436808.8018729229 
436808.8018729229 -1142152.584933173 -1142152.584933173 -1142152.584933173 -1142152.584933173 -2287022.140771372 -2287022.140771372 -2287022.140771372 -2287022.140771372 
-2555681.247142249 -2555681.247142249 -2555681.247142249 -2555681.247142249 -1850644.318366372 -1850644.318366372 -1850644.318366372 -1850644.318366372 -436953.9443576465 
-436953.9443576465 -436953.9443576465 -436953.9443576465 1142915.876833539 1142915.876833539 1142915.876833539 1142915.876833539 2285932.719577598 2285932.719577598 
2285932.719577598 2285932.719577598 1849911.006464247 1849911.006464247 1849911.006464247 1849911.006464247 438920.2324721909 438920.2324721909 438920.2324721909 
438920.2324721909 -1139579.488961739 -1139579.488961739 -1139579.488961739 -1139579.488961739 -2283931.154527333 -2283931.154527333 -2283931.154527333 -2283931.154527333 
-2554006.223101681 -2554006.223101681 -2554006.223101681 -2554006.223101681 -1850703.934034272 -1850703.934034272 -1850703.934034272 -1850703.934034272 -438604.7005414109 
-438604.7005414109 -438604.7005414109 -438604.7005414109 1139862.355358752 1139862.355358752 1139862.355358752 1139862.355358752 2283157.823704148 2283157.823704148 
2283157.823704148 2283157.823704148 2554974.083165108 2554974.083165108 2554974.083165108 2554974.083165108 437256.0620046809 437256.0620046809 437256.0620046809 
437256.0620046809 -1139769.252516719 -1139769.252516719 -1139769.252516719 -1139769.252516719 -2281922.243770905 -2281922.243770905 -2281922.243770905 -2281922.243770905 
-2551263.377843796 -2551263.377843796 -2551263.377843796 -2551263.377843796 -1847817.55335606 -1847817.55335606 -1847817.55335606 -1847817.55335606 -436710.6806180394 
-436710.6806180394 -436710.6806180394 -436710.6806180394 1139594.128294845 1139594.128294845 1139594.128294845 1139594.128294845 2281659.741872121 2281659.741872121 
2281659.741872121 2281659.741872121 2551863.219251909 2551863.219251909 2551863.219251909 2551863.219251909 1847109.956684127 1847109.956684127 1847109.956684127 
1847109.956684127 -1142686.023268255 -1142686.023268255 -1142686.023268255 -1142686.023268255 -2283537.499024481 -2283537.499024481 -2283537.499024481 -2283537.499024481 
-2551412.868858651 -2551412.868858651 -2551412.868858651 -2551412.868858651 -1845918.148596124 -1845918.148596124 -1845918.148596124 -1845918.148596124 -433819.0073079481 
-433819.0073079481 -433819.0073079481 -433819.0073079481 1142318.068376298 1142318.068376298 1142318.068376298 1142318.068376298 2283693.167320113 2283693.167320113 
2283693.167320113 2283693.167320113 2551529.300069976 2551529.300069976 2551529.300069976 2551529.300069976 1845574.12635316 1845574.12635316 1845574.12635316 
1845574.12635316 434258.8849337551 434258.8849337551 434258.8849337551 434258.8849337551 -2286359.576625393 -2286359.576625393 -2286359.576625393 -2286359.576625393 
-2554435.850469334 -2554435.850469334 -2554435.850469334 -2554435.850469334 -1847504.074605545 -1847504.074605545 -1847504.074605545 -1847504.074605545 -433944.0897150981 
-433944.0897150981 -433944.0897150981 -433944.0897150981 1144168.115917561 1144168.115917561 1144168.115917561 1144168.115917561 2286632.390977683 2286632.390977683 
2286632.390977683 2286632.390977683 2554242.258174846 2554242.258174846 2554242.258174846 2554242.258174846 1847544.234227172 1847544.234227172 1847544.234227172 
1847544.234227172 434072.7462076285 434072.7462076285 434072.7462076285 434072.7462076285 -1144416.154087614 -1144416.154087614 -1144416.154087614 -1144416.154087614 
-2556298.804923895 -2556298.804923895 -2556298.804923895 -2556298.804923895 -1850251.176794935 -1850251.176794935 -1850251.176794935 -1850251.176794935 -436983.3512429539 
-436983.3512429539 -436983.3512429539 -436983.3512429539 1142559.702413705 1142559.702413705 1142559.702413705 1142559.702413705 2286543.068967002 2286543.068967002 
2286543.068967002 2286543.068967002 2556069.202341487 2556069.202341487 2556069.202341487 2556069.202341487 1850465.629279763 1850465.629279763 1850465.629279763 
1850465.629279763 436866.2472953165 436866.2472953165 436866.2472953165 436866.2472953165 -1142584.757424554 -1142584.757424554 -1142584.757424554 -1142584.757424554 
-2286385.759912479 -2286385.759912479 -2286385.759912479 -2286385.759912479 -1850229.932544502 -1850229.932544502 -1850229.932544502 -1850229.932544502 -438856.0321716426 
-438856.0321716426 -438856.0321716426 -438856.0321716426 1139767.609669348 1139767.609669348 1139767.609669348 1139767.609669348 2283599.825098213 2283599.825098213 
2283599.825098213 2283599.825098213 2554335.886892351 2554335.886892351 2554335.886892351 2554335.886892351 1850497.956551983 1850497.956551983 1850497.956551983 
1850497.956551983 438606.8511383147 438606.8511383147 438606.8511383147 438606.8511383147 -1139632.774877276 -1139632.774877276 -1139632.774877276 -1139632.774877276 
-2283568.78630365 -2283568.78630365 -2283568.78630365 -2283568.78630365 -2554520.603451863 -2554520.603451863 -2554520.603451863 -2554520.603451863 -437125.3306594969 
-437125.3306594969 -437125.3306594969 -437125.3306594969 1139806.92827554 1139806.92827554 1139806.92827554 1139806.92827554 2281784.30687434 2281784.30687434 
2281784.30687434 2281784.30687434 2551400.28542495 2551400.28542495 2551400.28542495 2551400.28542495 1847756.678603515 1847756.678603515 1847756.678603515 
1847756.678603515 436660.537568053 436660.537568053 436660.537568053 436660.537568053 -1139421.084942317 -1139421.084942317 -1139421.084942317 -1139421.084942317 
-2281943.53608412 -2281943.53608412 -2281943.53608412 -2281943.53608412 -2551528.464564754 -2551528.464564754 -2551528.464564754 -2551528.464564754 -1847390.320496957 
-1847390.320496957 -1847390.320496957 -1847390.320496957 