Title = Test
FileType = Solution
Variables = q
Zone T = Test
ZoneType = FETriangle
Nodes = 400
Elements = 200
DataPacking = Block
StrandID = 13
SolutionTime = -3.479999999999992
-49405751.87934739 -49405751.87934739 -49405751.87934739 -49405751.87934739 -86731309.69909793 -86731309.69909793 -86731309.69909793 -86731309.69909793 -91311504.2831067 -91311504.2831067 
-91311504.2831067 -91311504.2831067 -60366958.92246741 -60366958.92246741 -60366958.92246741 -60366958.92246741 -7643152.168247415 -7643152.168247415 -7643152.168247415 
-7643152.168247415 50012557.74388745 50012557.74388745 50012557.74388745 50012557.74388745 86016558.18948048 86016558.18948048 86016558.18948048 86016558.18948048 
91861199.99573424 91861199.99573424 91861199.99573424 91861199.99573424 60192376.44914068 60192376.44914068 60192376.44914068 60192376.44914068 7375984.574110394 
7375984.574110394 7375984.574110394 7375984.574110394 -86801094.31432827 -86801094.31432827 -86801094.31432827 -86801094.31432827 -91116503.53683034 -91116503.53683034 
-91116503.53683034 -91116503.53683034 -60611261.81519911 -60611261.81519911 -60611261.81519911 -60611261.81519911 -7515131.231841032 -7515131.231841032 -7515131.231841032 
-7515131.231841032 49994558.91578235 49994558.91578235 49994558.91578235 49994558.91578235 85856159.84527722 85856159.84527722 85856159.84527722 85856159.84527722 
92117258.99259838 92117258.99259838 92117258.99259838 92117258.99259838 59936897.09100062 59936897.09100062 59936897.09100062 59936897.09100062 7605437.406403583 
7605437.406403583 7605437.406403583 7605437.406403583 -49466321.35295413 -49466321.35295413 -49466321.35295413 -49466321.35295413 -90938282.30829401 -90938282.30829401 
-90938282.30829401 -90938282.30829401 -60906866.18333036 -60906866.18333036 -60906866.18333036 -60906866.18333036 -7163776.416896636 -7163776.416896636 -7163776.416896636 
-7163776.416896636 49684617.83149803 49684617.83149803 49684617.83149803 49684617.83149803 85988854.89489153 85988854.89489153 85988854.89489153 85988854.89489153 
92101306.3080705 92101306.3080705 92101306.3080705 92101306.3080705 59808810.25623357 59808810.25623357 59808810.25623357 59808810.25623357 7777534.881466818 
7777534.881466818 7777534.881466818 7777534.881466818 -49579520.75790812 -49579520.75790812 -49579520.75790812 -49579520.75790812 -86772678.50563024 -86772678.50563024 
-86772678.50563024 -86772678.50563024 -61012928.36373086 -61012928.36373086 -61012928.36373086 -61012928.36373086 -6855543.988838588 -6855543.988838588 -6855543.988838588 
-6855543.988838588 49320360.56800494 49320360.56800494 49320360.56800494 49320360.56800494 86328512.68429154 86328512.68429154 86328512.68429154 86328512.68429154 
91855433.66235366 91855433.66235366 91855433.66235366 91855433.66235366 59868426.28605698 59868426.28605698 59868426.28605698 59868426.28605698 7816201.435042344 
7816201.435042344 7816201.435042344 7816201.435042344 -49730332.63218993 -49730332.63218993 -49730332.63218993 -49730332.63218993 -86626003.00783336 -86626003.00783336 
-86626003.00783336 -86626003.00783336 -90964126.64327088 -90964126.64327088 -90964126.64327088 -90964126.64327088 -6838757.97439991 -6838757.97439991 -6838757.97439991 
-6838757.97439991 49163717.25606854 49163717.25606854 49163717.25606854 49163717.25606854 86628737.41858861 86628737.41858861 86628737.41858861 86628737.41858861 
91583900.08905578 91583900.08905578 91583900.08905578 91583900.08905578 60049471.40434052 60049471.40434052 60049471.40434052 60049471.40434052 7761392.858594318 
7761392.858594318 7761392.858594318 7761392.858594318 -49867723.75097902 -49867723.75097902 -49867723.75097902 -49867723.75097902 -86412212.28650439 -86412212.28650439 
-86412212.28650439 -86412212.28650439 -91230039.9991914 -91230039.9991914 -91230039.9991914 -91230039.9991914 -60838485.01544545 -60838485.01544545 -60838485.01544545 
-60838485.01544545 49258143.09923498 49258143.09923498 49258143.09923498 49258143.09923498 86728725.59729867 86728725.59729867 86728725.59729867 86728725.59729867 
91410418.95514411 91410418.95514411 91410418.95514411 91410418.95514411 60273826.29025346 60273826.29025346 60273826.29025346 60273826.29025346 7642654.453836796 
7642654.453836796 7642654.453836796 7642654.453836796 -49885319.57275043 -49885319.57275043 -49885319.57275043 -49885319.57275043 -86255565.5776661 -86255565.5776661 
-86255565.5776661 -86255565.5776661 -91548840.49440928 -91548840.49440928 -91548840.49440928 -91548840.49440928 -60523176.0611985 -60523176.0611985 -60523176.0611985 
-60523176.0611985 -7100866.689881323 -7100866.689881323 -7100866.689881323 -7100866.689881323 86642977.80999655 86642977.80999655 86642977.80999655 86642977.80999655 
91344024.89417806 91344024.89417806 91344024.89417806 91344024.89417806 60461050.28961536 60461050.28961536 60461050.28961536 60461050.28961536 7471249.227346223 
7471249.227346223 7471249.227346223 7471249.227346223 -49732840.60234127 -49732840.60234127 -49732840.60234127 -49732840.60234127 -86264914.95992334 -86264914.95992334 
-86264914.95992334 -86264914.95992334 -91676497.78278735 -91676497.78278735 -91676497.78278735 -91676497.78278735 -60301152.02085257 -60301152.02085257 -60301152.02085257 
-60301152.02085257 -7397380.648987232 -7397380.648987232 -7397380.648987232 -7397380.648987232 49453483.79389404 49453483.79389404 49453483.79389404 49453483.79389404 
91345026.35653383 91345026.35653383 91345026.35653383 91345026.35653383 60540301.1618242 60540301.1618242 60540301.1618242 60540301.1618242 7308980.192689632 
7308980.192689632 7308980.192689632 7308980.192689632 -49523691.58609875 -49523691.58609875 -49523691.58609875 -49523691.58609875 -86405425.71571571 -86405425.71571571 
-86405425.71571571 -86405425.71571571 -91576708.64896359 -91576708.64896359 -91576708.64896359 -91576708.64896359 -60271252.22513552 -60271252.22513552 -60271252.22513552 
-60271252.22513552 -7512662.557559778 -7512662.557559778 -7512662.557559778 -7512662.557559778 49584097.76332949 49584097.76332949 49584097.76332949 49584097.76332949 
86511335.25896917 86511335.25896917 86511335.25896917 86511335.25896917 60515654.37542102 60515654.37542102 60515654.37542102 60515654.37542102 7221962.824185321 
7221962.824185321 7221962.824185321 7221962.824185321 -49408275.64391761 -49408275.64391761 -49408275.64391761 -49408275.64391761 -86541634.26268539 -86541634.26268539 
-86541634.26268539 -86541634.26268539 -91444714.39316797 -91444714.39316797 -91444714.39316797 -91444714.39316797 -60309796.49471359 -60309796.49471359 -60309796.49471359 
-60309796.49471359 -7504393.808148066 -7504393.808148066 -7504393.808148066 -7504393.808148066 49659440.23160972 49659440.23160972 49659440.23160972 49659440.23160972 
86417797.21335655 86417797.21335655 86417797.21335655 86417797.21335655 91393959.95816876 91393959.95816876 91393959.95816876 91393959.95816876 7234991.199390486 
7234991.199390486 7234991.199390486 7234991.199390486 -49388508.07540876 -49388508.07540876 -49388508.07540876 -49388508.07540876 -86634698.87669823 -86634698.87669823 
-86634698.87669823 -86634698.87669823 -91394747.41941616 -91394747.41941616 -91394747.41941616 -91394747.41941616 -60304769.01129324 -60304769.01129324 -60304769.01129324 
-60304769.01129324 -7563172.449690201 -7563172.449690201 -7563172.449690201 -7563172.449690201 49816655.2035203 49816655.2035203 49816655.2035203 49816655.2035203 
86270105.67309095 86270105.67309095 86270105.67309095 86270105.67309095 91556404.37992877 91556404.37992877 91556404.37992877 91556404.37992877 60407739.37648369 
60407739.37648369 60407739.37648369 60407739.37648369 