Title = Test
FileType = Solution
Variables = q
Zone T = Test
ZoneType = FETriangle
Nodes = 400
Elements = 200
DataPacking = Block
StrandID = 16
SolutionTime = -5.699999999999989
-4021544778700086 -4021544778700086 -4021544778700086 -4021544778700086 3412081249738706 3412081249738706 3412081249738706 3412081249738706 -2602634087949360 -2602634087949360 
-2602634087949360 -2602634087949360 2005425425532568 2005425425532568 2005425425532568 2005425425532568 -1789468286976346 -1789468286976346 -1789468286976346 
-1789468286976346 2023032178326482 2023032178326482 2023032178326482 2023032178326482 -2713523396242753 -2713523396242753 -2713523396242753 -2713523396242753 
3470832319169985 3470832319169985 3470832319169985 3470832319169985 -4108769458417840 -4108769458417840 -4108769458417840 -4108769458417840 4324568835518778 
4324568835518778 4324568835518778 4324568835518778 4955470087501135 4955470087501135 4955470087501135 4955470087501135 -3900927456931023 -3900927456931023 
-3900927456931023 -3900927456931023 2736154487761589 2736154487761589 2736154487761589 2736154487761589 -1838819856770430 -1838819856770430 -1838819856770430 
-1838819856770430 1540190310385448 1540190310385448 1540190310385448 1540190310385448 -2060800614605540 -2060800614605540 -2060800614605540 -2060800614605540 
3078747927997308 3078747927997308 3078747927997308 3078747927997308 -4300486997874262 -4300486997874262 -4300486997874262 -4300486997874262 5192156209020732 
5192156209020732 5192156209020732 5192156209020732 -5401684096485080 -5401684096485080 -5401684096485080 -5401684096485080 -5419918704768806 -5419918704768806 
-5419918704768806 -5419918704768806 3905404650087324 3905404650087324 3905404650087324 3905404650087324 -2292610784257178 -2292610784257178 -2292610784257178 
-2292610784257178 1173834907949553 1173834907949553 1173834907949553 1173834907949553 -1090385527573852 -1090385527573852 -1090385527573852 -1090385527573852 
1968002506496283 1968002506496283 1968002506496283 1968002506496283 -3569657720325160 -3569657720325160 -3569657720325160 -3569657720325160 5201259738417096 
5201259738417096 5201259738417096 5201259738417096 -6215884572446153 -6215884572446153 -6215884572446153 -6215884572446153 6339955506420994 6339955506420994 
6339955506420994 6339955506420994 5050423788706586 5050423788706586 5050423788706586 5050423788706586 -3098738261147406 -3098738261147406 -3098738261147406 
-3098738261147406 1218033174853363 1218033174853363 1218033174853363 1218033174853363 -228901704999026.5 -228901704999026.5 -228901704999026.5 -228901704999026.5 
417850095369336.8 417850095369336.8 417850095369336.8 417850095369336.8 -1831834261754193 -1831834261754193 -1831834261754193 -1831834261754193 3846532794894626 
3846532794894626 3846532794894626 3846532794894626 -5646562790480918 -5646562790480918 -5646562790480918 -5646562790480918 6646619751263558 6646619751263558 
6646619751263558 6646619751263558 -6373422586706018 -6373422586706018 -6373422586706018 -6373422586706018 -4066239119279457 -4066239119279457 -4066239119279457 
-4066239119279457 1956466920465438 1956466920465438 1956466920465438 1956466920465438 -244001911627627.3 -244001911627627.3 -244001911627627.3 -244001911627627.3 
-515122110904657.8 -515122110904657.8 -515122110904657.8 -515122110904657.8 -110190704870132.8 -110190704870132.8 -110190704870132.8 -110190704870132.8 1817263935240555 
1817263935240555 1817263935240555 1817263935240555 -3898788167884100 -3898788167884100 -3898788167884100 -3898788167884100 5635692415413058 5635692415413058 
5635692415413058 5635692415413058 -6266492553623069 -6266492553623069 -6266492553623069 -6266492553623069 5691411297070080 5691411297070080 5691411297070080 
5691411297070080 3188804604961893 3188804604961893 3188804604961893 3188804604961893 -1374668419447583 -1374668419447583 -1374668419447583 -1374668419447583 
-48335036895220.16 -48335036895220.16 -48335036895220.16 -48335036895220.16 394726155840460.6 394726155840460.6 394726155840460.6 394726155840460.6 430260125488222 
430260125488222 430260125488222 430260125488222 -2071726615304546 -2071726615304546 -2071726615304546 -2071726615304546 3961939989507832 3961939989507832 
3961939989507832 3961939989507832 -5254997401604356 -5254997401604356 -5254997401604356 -5254997401604356 5598979629547937 5598979629547937 5598979629547937 
5598979629547937 -4824983032094744 -4824983032094744 -4824983032094744 -4824983032094744 -2935570214402384 -2935570214402384 -2935570214402384 -2935570214402384 
1495615567071540 1495615567071540 1495615567071540 1495615567071540 -543813543362494.8 -543813543362494.8 -543813543362494.8 -543813543362494.8 414127269344227.8 
414127269344227.8 414127269344227.8 414127269344227.8 -1142253587383914 -1142253587383914 -1142253587383914 -1142253587383914 2517452000679917 2517452000679917 
2517452000679917 2517452000679917 -3869572284045932 -3869572284045932 -3869572284045932 -3869572284045932 4803032368804545 4803032368804545 4803032368804545 
4803032368804545 -4931749341439728 -4931749341439728 -4931749341439728 -4931749341439728 4192731764734340 4192731764734340 4192731764734340 4192731764734340 
2984139350600650 2984139350600650 2984139350600650 2984139350600650 -2053778541629070 -2053778541629070 -2053778541629070 -2053778541629070 1400767695305716 
1400767695305716 1400767695305716 1400767695305716 -1272665831121136 -1272665831121136 -1272665831121136 -1272665831121136 1806934115623128 1806934115623128 
1806934115623128 1806934115623128 -2655771247334566 -2655771247334566 -2655771247334566 -2655771247334566 3595334633538816 3595334633538816 3595334633538816 
3595334633538816 -4223392097701370 -4223392097701370 -4223392097701370 -4223392097701370 4298235385322832 4298235385322832 4298235385322832 4298235385322832 
-3879803462605124 -3879803462605124 -3879803462605124 -3879803462605124 -3143711972794076 -3143711972794076 -3143711972794076 -3143711972794076 2520622524089098 
2520622524089098 2520622524089098 2520622524089098 -1976215026250178 -1976215026250178 -1976215026250178 -1976215026250178 1818408205860808 1818408205860808 
1818408205860808 1818408205860808 -1977497376566436 -1977497376566436 -1977497376566436 -1977497376566436 2490183520592379 2490183520592379 2490183520592379 
2490183520592379 -3101689494366332 -3101689494366332 -3101689494366332 -3101689494366332 3569905290787417 3569905290787417 3569905290787417 3569905290787417 
-3816004968921569 -3816004968921569 -3816004968921569 -3816004968921569 3615999297569025 3615999297569025 3615999297569025 3615999297569025 3408159645311877 
3408159645311877 3408159645311877 3408159645311877 -2862085653621658 -2862085653621658 -2862085653621658 -2862085653621658 2352657022039042 2352657022039042 
2352657022039042 2352657022039042 -1951010970382084 -1951010970382084 -1951010970382084 -1951010970382084 1914559223048850 1914559223048850 1914559223048850 
1914559223048850 -2195803073660541 -2195803073660541 -2195803073660541 -2195803073660541 2670682752818810 2670682752818810 2670682752818810 2670682752818810 
-3255295226721905 -3255295226721905 -3255295226721905 -3255295226721905 3602925629662163 3602925629662163 3602925629662163 3602925629662163 -3684789348494689 
-3684789348494689 -3684789348494689 -3684789348494689 