Title = Test
FileType = Solution
Variables = q
Zone T = Test
ZoneType = FETriangle
Nodes = 400
Elements = 200
DataPacking = Block
StrandID = 9
SolutionTime = -1.359999999999996
-226.6945275922214 -226.6945275922214 -226.6945275922214 -226.6945275922214 -341.8073122151194 -341.8073122151194 -341.8073122151194 -341.8073122151194 -326.3613345325479 -326.3613345325479 
-326.3613345325479 -326.3613345325479 -186.2564061150154 -186.2564061150154 -186.2564061150154 -186.2564061150154 24.99212768325174 24.99212768325174 24.99212768325174 
24.99212768325174 226.6945249270315 226.6945249270315 226.6945249270315 226.6945249270315 341.8073174724639 341.8073174724639 341.8073174724639 341.8073174724639 
326.3613287485488 326.3613287485488 326.3613287485488 326.3613287485488 186.2564102497752 186.2564102497752 186.2564102497752 186.2564102497752 -24.99212862613263 
-24.99212862613263 -24.99212862613263 -24.99212862613263 -356.78551211268 -356.78551211268 -356.78551211268 -356.78551211268 -352.7263326174477 -352.7263326174477 
-352.7263326174477 -352.7263326174477 -213.9376728176291 -213.9376728176291 -213.9376728176291 -213.9376728176291 6.567897104332937 6.567897104332937 6.567897104332937 
6.567897104332937 224.5647601955156 224.5647601955156 224.5647601955156 224.5647601955156 356.7855154321802 356.7855154321802 356.7855154321802 356.7855154321802 
352.7263274438763 352.7263274438763 352.7263274438763 352.7263274438763 213.9376778046684 213.9376778046684 213.9376778046684 213.9376778046684 -6.567900053076234 
-6.567900053076234 -6.567900053076234 -6.567900053076234 -224.5647603797844 -224.5647603797844 -224.5647603797844 -224.5647603797844 -350.5965663282991 -350.5965663282991 
-350.5965663282991 -350.5965663282991 -228.9158718282414 -228.9158718282414 -228.9158718282414 -228.9158718282414 -19.79710165743914 -19.79710165743914 -19.79710165743914 
-19.79710165743914 196.8834942499837 196.8834942499837 196.8834942499837 196.8834942499837 338.361283976349 338.361283976349 338.361283976349 338.361283976349 
350.5965632127982 350.5965632127982 350.5965632127982 350.5965632127982 228.9158759239048 228.9158759239048 228.9158759239048 228.9158759239048 19.79709819635527 
19.79709819635527 19.79709819635527 19.79709819635527 -196.8834926892496 -196.8834926892496 -196.8834926892496 -196.8834926892496 -338.3612830561182 -338.3612830561182 
-338.3612830561182 -338.3612830561182 -210.4916415200701 -210.4916415200701 -210.4916415200701 -210.4916415200701 -17.66733676450117 -17.66733676450117 -17.66733676450117 
-17.66733676450117 181.9052966735165 181.9052966735165 181.9052966735165 181.9052966735165 311.9962835979081 311.9962835979081 311.9962835979081 311.9962835979081 
322.9152988431509 322.9152988431509 322.9152988431509 322.9152988431509 210.4916435449638 210.4916435449638 210.4916435449638 210.4916435449638 17.66733405450589 
17.66733405450589 17.66733405450589 17.66733405450589 -181.9052943485828 -181.9052943485828 -181.9052943485828 -181.9052943485828 -311.9962846881415 -311.9962846881415 
-311.9962846881415 -311.9962846881415 -322.9152993927796 -322.9152993927796 -322.9152993927796 -322.9152993927796 10.01392989355976 10.01392989355976 10.01392989355976 
10.01392989355976 200.3295273255684 200.3295273255684 200.3295273255684 200.3295273255684 314.1260481209076 314.1260481209076 314.1260481209076 314.1260481209076 
307.9371017523247 307.9371017523247 307.9371017523247 307.9371017523247 184.1266427961203 184.1266427961203 184.1266427961203 184.1266427961203 -10.0139305205566 
-10.0139305205566 -10.0139305205566 -10.0139305205566 -200.3295259219728 -200.3295259219728 -200.3295259219728 -200.3295259219728 -314.1260497285336 -314.1260497285336 
-314.1260497285336 -314.1260497285336 -307.9371005321552 -307.9371005321552 -307.9371005321552 -307.9371005321552 -184.1266431852472 -184.1266431852472 -184.1266431852472 
-184.1266431852472 226.6945254645749 226.6945254645749 226.6945254645749 226.6945254645749 341.807314968832 341.807314968832 341.807314968832 341.807314968832 
326.3613321422235 326.3613321422235 326.3613321422235 326.3613321422235 186.2564076189661 186.2564076189661 186.2564076189661 186.2564076189661 -24.99212808721808 
-24.99212808721808 -24.99212808721808 -24.99212808721808 -226.6945257636157 -226.6945257636157 -226.6945257636157 -226.6945257636157 -341.807315559045 -341.807315559045 
-341.807315559045 -341.807315559045 -326.3613309312519 -326.3613309312519 -326.3613309312519 -326.3613309312519 -186.2564090128661 -186.2564090128661 -186.2564090128661 
-186.2564090128661 24.99212915938809 24.99212915938809 24.99212915938809 24.99212915938809 356.7855142171238 356.7855142171238 356.7855142171238 356.7855142171238 
352.7263302779039 352.7263302779039 352.7263302779039 352.7263302779039 213.9376745801745 213.9376745801745 213.9376745801745 213.9376745801745 -6.567897898750203 
-6.567897898750203 -6.567897898750203 -6.567897898750203 -224.5647606102755 -224.5647606102755 -224.5647606102755 -224.5647606102755 -356.7855136958624 -356.7855136958624 
-356.7855136958624 -356.7855136958624 -352.7263300681442 -352.7263300681442 -352.7263300681442 -352.7263300681442 -213.9376754025947 -213.9376754025947 -213.9376754025947 
-213.9376754025947 6.567899052636022 6.567899052636022 6.567899052636022 6.567899052636022 224.5647595478094 224.5647595478094 224.5647595478094 224.5647595478094 
350.5965649530837 350.5965649530837 350.5965649530837 350.5965649530837 228.9158731046473 228.9158731046473 228.9158731046473 228.9158731046473 19.79710083891994 
19.79710083891994 19.79710083891994 19.79710083891994 -196.8834940624236 -196.8834940624236 -196.8834940624236 -196.8834940624236 -338.3612832472857 -338.3612832472857 
-338.3612832472857 -338.3612832472857 -350.5965650155573 -350.5965650155573 -350.5965650155573 -350.5965650155573 -228.9158735425922 -228.9158735425922 -228.9158735425922 
-228.9158735425922 -19.79710009324039 -19.79710009324039 -19.79710009324039 -19.79710009324039 196.8834932611617 196.8834932611617 196.8834932611617 196.8834932611617 
338.3612838032586 338.3612838032586 338.3612838032586 338.3612838032586 210.4916417654626 210.4916417654626 210.4916417654626 210.4916417654626 17.66733691385684 
17.66733691385684 17.66733691385684 17.66733691385684 -181.9052969699846 -181.9052969699846 -181.9052969699846 -181.9052969699846 -311.9962832473609 -311.9962832473609 
-311.9962832473609 -311.9962832473609 -322.9152994951598 -322.9152994951598 -322.9152994951598 -322.9152994951598 -210.4916424533687 -210.4916424533687 -210.4916424533687 
-210.4916424533687 -17.66733518414224 -17.66733518414224 -17.66733518414224 -17.66733518414224 181.90529487941 181.90529487941 181.90529487941 181.90529487941 
311.9962849238268 311.9962849238268 311.9962849238268 311.9962849238268 322.9152988674898 322.9152988674898 322.9152988674898 322.9152988674898 -10.01392872148026 
-10.01392872148026 -10.01392872148026 -10.01392872148026 -200.3295291799004 -200.3295291799004 -200.3295291799004 -200.3295291799004 -314.1260463749512 -314.1260463749512 
-314.1260463749512 -314.1260463749512 -307.9371029888877 -307.9371029888877 -307.9371029888877 -307.9371029888877 -184.1266420728274 -184.1266420728274 -184.1266420728274 
-184.1266420728274 10.01393034436928 10.01393034436928 10.01393034436928 10.01393034436928 200.3295253834531 200.3295253834531 200.3295253834531 200.3295253834531 
314.1260508600911 314.1260508600911 314.1260508600911 314.1260508600911 307.9370995084508 307.9370995084508 307.9370995084508 307.9370995084508 184.1266432416544 
184.1266432416544 184.1266432416544 184.1266432416544 