Title = Test
FileType = Solution
Variables = q
Zone T = Test
ZoneType = FETriangle
Nodes = 400
Elements = 200
DataPacking = Block
StrandID = 2
SolutionTime = 0.04000000000000011
-0.003123466802691625 -0.003123466802691625 -0.003123466802691625 -0.003123466802691625 0.007158056553199033 0.007158056553199033 0.007158056553199033 0.007158056553199033 0.01470544559916161 0.01470544559916161 
0.01470544559916161 0.01470544559916161 0.01663585424595707 0.01663585424595707 0.01663585424595707 0.01663585424595707 0.01221193200268606 0.01221193200268606 0.01221193200268606 
0.01221193200268606 0.003123466802691657 0.003123466802691657 0.003123466802691657 0.003123466802691657 -0.00715805655319908 -0.00715805655319908 -0.00715805655319908 -0.00715805655319908 
-0.01470544559916133 -0.01470544559916133 -0.01470544559916133 -0.01470544559916133 -0.01663585424595681 -0.01663585424595681 -0.01663585424595681 -0.01663585424595681 -0.01221193200268596 
-0.01221193200268596 -0.01221193200268596 -0.01221193200268596 -0.1207085078980165 -0.1207085078980165 -0.1207085078980165 -0.1207085078980165 0.1596213060135152 0.1596213060135152 
0.1596213060135152 0.1596213060135152 0.3789812063565319 0.3789812063565319 0.3789812063565319 0.3789812063565319 0.4535831669687913 0.4535831669687913 0.4535831669687913 
0.4535831669687913 0.354931774523791 0.354931774523791 0.354931774523791 0.354931774523791 0.1207085078980162 0.1207085078980162 0.1207085078980162 0.1207085078980162 
-0.1596213060135152 -0.1596213060135152 -0.1596213060135152 -0.1596213060135152 -0.3789812063565317 -0.3789812063565317 -0.3789812063565317 -0.3789812063565317 -0.4535831669687911 
-0.4535831669687911 -0.4535831669687911 -0.4535831669687911 -0.3549317745237909 -0.3549317745237909 -0.3549317745237909 -0.3549317745237909 -0.1921870017075842 -0.1921870017075842 
-0.1921870017075842 -0.1921870017075842 0.2511146419053166 0.2511146419053166 0.2511146419053166 0.2511146419053166 0.5984990273831448 0.5984990273831448 0.5984990273831448 
0.5984990273831448 0.7172771266343659 0.7172771266343659 0.7172771266343659 0.7172771266343659 0.5620797428641215 0.5620797428641215 0.5620797428641215 0.5620797428641215 
0.1921870017075835 0.1921870017075835 0.1921870017075835 0.1921870017075835 -0.2511146419053162 -0.2511146419053162 -0.2511146419053162 -0.2511146419053162 -0.5984990273831444 
-0.5984990273831444 -0.5984990273831444 -0.5984990273831444 -0.7172771266343659 -0.7172771266343659 -0.7172771266343659 -0.7172771266343659 -0.5620797428641215 -0.5620797428641215 
-0.5620797428641215 -0.5620797428641215 -0.1902565930607887 -0.1902565930607887 -0.1902565930607887 -0.1902565930607887 0.2466907196620456 0.2466907196620456 0.2466907196620456 
0.2466907196620456 0.5894105621831502 0.5894105621831502 0.5894105621831502 0.5894105621831502 0.7069956032784752 0.7069956032784752 0.7069956032784752 0.7069956032784752 
0.5545323538181592 0.5545323538181592 0.5545323538181592 0.5545323538181592 0.1902565930607884 0.1902565930607884 0.1902565930607884 0.1902565930607884 -0.2466907196620451 
-0.2466907196620451 -0.2466907196620451 -0.2466907196620451 -0.5894105621831502 -0.5894105621831502 -0.5894105621831502 -0.5894105621831502 -0.7069956032784753 -0.7069956032784753 
-0.7069956032784753 -0.7069956032784753 -0.5545323538181591 -0.5545323538181591 -0.5545323538181591 -0.5545323538181591 -0.1156546324485295 -0.1156546324485295 -0.1156546324485295 
-0.1156546324485295 0.1480393272170452 0.1480393272170452 0.1480393272170452 0.1480393272170452 0.3551872955573759 0.3551872955573759 0.3551872955573759 0.3551872955573759 
0.4266657893669438 0.4266657893669438 0.4266657893669438 0.4266657893669438 0.3351724534751425 0.3351724534751425 0.3351724534751425 0.3351724534751425 0.1156546324485293 
0.1156546324485293 0.1156546324485293 0.1156546324485293 -0.1480393272170452 -0.1480393272170452 -0.1480393272170452 -0.1480393272170452 -0.355187295557376 -0.355187295557376 
-0.355187295557376 -0.355187295557376 -0.4266657893669437 -0.4266657893669437 -0.4266657893669437 -0.4266657893669437 -0.3351724534751424 -0.3351724534751424 -0.3351724534751424 
-0.3351724534751424 0.003123466802691712 0.003123466802691712 0.003123466802691712 0.003123466802691712 -0.007158056553199098 -0.007158056553199098 -0.007158056553199098 -0.007158056553199098 
-0.01470544559916179 -0.01470544559916179 -0.01470544559916179 -0.01470544559916179 -0.01663585424595725 -0.01663585424595725 -0.01663585424595725 -0.01663585424595725 -0.01221193200268625 
-0.01221193200268625 -0.01221193200268625 -0.01221193200268625 -0.003123466802691693 -0.003123466802691693 -0.003123466802691693 -0.003123466802691693 0.007158056553199209 0.007158056553199209 
0.007158056553199209 0.007158056553199209 0.01470544559916176 0.01470544559916176 0.01470544559916176 0.01470544559916176 0.01663585424595729 0.01663585424595729 0.01663585424595729 
0.01663585424595729 0.01221193200268622 0.01221193200268622 0.01221193200268622 0.01221193200268622 0.1207085078980165 0.1207085078980165 0.1207085078980165 0.1207085078980165 
-0.1596213060135152 -0.1596213060135152 -0.1596213060135152 -0.1596213060135152 -0.3789812063565319 -0.3789812063565319 -0.3789812063565319 -0.3789812063565319 -0.4535831669687913 
-0.4535831669687913 -0.4535831669687913 -0.4535831669687913 -0.354931774523791 -0.354931774523791 -0.354931774523791 -0.354931774523791 -0.1207085078980163 -0.1207085078980163 
-0.1207085078980163 -0.1207085078980163 0.1596213060135154 0.1596213060135154 0.1596213060135154 0.1596213060135154 0.3789812063565322 0.3789812063565322 0.3789812063565322 
0.3789812063565322 0.4535831669687914 0.4535831669687914 0.4535831669687914 0.4535831669687914 0.3549317745237912 0.3549317745237912 0.3549317745237912 0.3549317745237912 
0.1921870017075844 0.1921870017075844 0.1921870017075844 0.1921870017075844 -0.2511146419053167 -0.2511146419053167 -0.2511146419053167 -0.2511146419053167 -0.5984990273831448 
-0.5984990273831448 -0.5984990273831448 -0.5984990273831448 -0.7172771266343664 -0.7172771266343664 -0.7172771266343664 -0.7172771266343664 -0.5620797428641213 -0.5620797428641213 
-0.5620797428641213 -0.5620797428641213 -0.1921870017075837 -0.1921870017075837 -0.1921870017075837 -0.1921870017075837 0.2511146419053168 0.2511146419053168 0.2511146419053168 
0.2511146419053168 0.598499027383145 0.598499027383145 0.598499027383145 0.598499027383145 0.7172771266343659 0.7172771266343659 0.7172771266343659 0.7172771266343659 
0.5620797428641214 0.5620797428641214 0.5620797428641214 0.5620797428641214 0.1902565930607888 0.1902565930607888 0.1902565930607888 0.1902565930607888 -0.2466907196620458 
-0.2466907196620458 -0.2466907196620458 -0.2466907196620458 -0.5894105621831501 -0.5894105621831501 -0.5894105621831501 -0.5894105621831501 -0.706995603278475 -0.706995603278475 
-0.706995603278475 -0.706995603278475 -0.5545323538181591 -0.5545323538181591 -0.5545323538181591 -0.5545323538181591 -0.1902565930607882 -0.1902565930607882 -0.1902565930607882 
-0.1902565930607882 0.2466907196620458 0.2466907196620458 0.2466907196620458 0.2466907196620458 0.5894105621831505 0.5894105621831505 0.5894105621831505 0.5894105621831505 
0.706995603278475 0.706995603278475 0.706995603278475 0.706995603278475 0.5545323538181592 0.5545323538181592 0.5545323538181592 0.5545323538181592 0.1156546324485295 
0.1156546324485295 0.1156546324485295 0.1156546324485295 -0.148039327217045 -0.148039327217045 -0.148039327217045 -0.148039327217045 -0.3551872955573761 -0.3551872955573761 
-0.3551872955573761 -0.3551872955573761 -0.4266657893669437 -0.4266657893669437 -0.4266657893669437 -0.4266657893669437 -0.3351724534751424 -0.3351724534751424 -0.3351724534751424 
-0.3351724534751424 -0.1156546324485294 -0.1156546324485294 -0.1156546324485294 -0.1156546324485294 0.1480393272170453 0.1480393272170453 0.1480393272170453 0.1480393272170453 
0.3551872955573765 0.3551872955573765 0.3551872955573765 0.3551872955573765 0.4266657893669438 0.4266657893669438 0.4266657893669438 0.4266657893669438 0.3351724534751425 
0.3351724534751425 0.3351724534751425 0.3351724534751425 