Title = Test
FileType = Solution
Variables = q
Zone T = Test
ZoneType = FETriangle
Nodes = 400
Elements = 200
DataPacking = Block
StrandID = 14
SolutionTime = -4.159999999999991
2356834820.801322 2356834820.801322 2356834820.801322 2356834820.801322 4605075215.528111 4605075215.528111 4605075215.528111 4605075215.528111 3916927108.193551 3916927108.193551 
3916927108.193551 3916927108.193551 2649552019.746328 2649552019.746328 2649552019.746328 2649552019.746328 -828768987.5789196 -828768987.5789196 -828768987.5789196 
-828768987.5789196 -2068970932.541476 -2068970932.541476 -2068970932.541476 -2068970932.541476 -5310815451.959053 -5310815451.959053 -5310815451.959053 -5310815451.959053 
-3062826509.332744 -3062826509.332744 -3062826509.332744 -3062826509.332744 -3325756684.405747 -3325756684.405747 -3325756684.405747 -3325756684.405747 1068749401.556861 
1068749401.556861 1068749401.556861 1068749401.556861 4749554763.863463 4749554763.863463 4749554763.863463 4749554763.863463 3972591464.497689 3972591464.497689 
3972591464.497689 3972591464.497689 2443059777.813371 2443059777.813371 2443059777.813371 2443059777.813371 -588554479.7256403 -588554479.7256403 -588554479.7256403 
-588554479.7256403 -2209766664.440245 -2209766664.440245 -2209766664.440245 -2209766664.440245 -5357315224.166985 -5357315224.166985 -5357315224.166985 -5357315224.166985 
-2819816982.740975 -2819816982.740975 -2819816982.740975 -2819816982.740975 -3700566900.031233 -3700566900.031233 -3700566900.031233 -3700566900.031233 1470459790.861944 
1470459790.861944 1470459790.861944 1470459790.861944 2040354454.06104 2040354454.06104 2040354454.06104 2040354454.06104 3939369158.480616 3939369158.480616 
3939369158.480616 3939369158.480616 2247832457.615356 2247832457.615356 2247832457.615356 2247832457.615356 -214171116.4324505 -214171116.4324505 -214171116.4324505 
-214171116.4324505 -2634842811.865313 -2634842811.865313 -2634842811.865313 -2634842811.865313 -5032284796.9856 -5032284796.9856 -5032284796.9856 -5032284796.9856 
-2943398698.26208 -2943398698.26208 -2943398698.26208 -2943398698.26208 -3794159836.427288 -3794159836.427288 -3794159836.427288 -3794159836.427288 1720250035.453828 
1720250035.453828 1720250035.453828 1720250035.453828 1744272207.050609 1744272207.050609 1744272207.050609 1744272207.050609 4967133401.379962 4967133401.379962 
4967133401.379962 4967133401.379962 2255286853.231914 2255286853.231914 2255286853.231914 2255286853.231914 14503107.78539944 14503107.78539944 14503107.78539944 
14503107.78539944 -3071016687.918258 -3071016687.918258 -3071016687.918258 -3071016687.918258 -4509634800.159476 -4509634800.159476 -4509634800.159476 -4509634800.159476 
-3400994756.524264 -3400994756.524264 -3400994756.524264 -3400994756.524264 -3515911686.422038 -3515911686.422038 -3515911686.422038 -3515911686.422038 1659949293.514318 
1659949293.514318 1659949293.514318 1659949293.514318 1622258954.436725 1622258954.436725 1622258954.436725 1622258954.436725 5179340358.114661 5179340358.114661 
5179340358.114661 5179340358.114661 3766219363.932734 3766219363.932734 3766219363.932734 3766219363.932734 -121066350.4808849 -121066350.4808849 -121066350.4808849 
-121066350.4808849 -3175839745.558682 -3175839745.558682 -3175839745.558682 -3175839745.558682 -4172596504.812687 -4172596504.812687 -4172596504.812687 -4172596504.812687 
-3862966792.111881 -3862966792.111881 -3862966792.111881 -3862966792.111881 -3079437699.992379 -3079437699.992379 -3079437699.992379 -3079437699.992379 1374535617.573644 
1374535617.573644 1374535617.573644 1374535617.573644 1691056627.463136 1691056627.463136 1691056627.463136 1691056627.463136 5321644428.572882 5321644428.572882 
5321644428.572882 5321644428.572882 3488550437.877618 3488550437.877618 3488550437.877618 3488550437.877618 2536119981.478486 2536119981.478486 2536119981.478486 
2536119981.478486 -2886687405.507196 -2886687405.507196 -2886687405.507196 -2886687405.507196 -4223216215.611361 -4223216215.611361 -4223216215.611361 -4223216215.611361 
-4053826149.340991 -4053826149.340991 -4053826149.340991 -4053826149.340991 -2743295432.993615 -2743295432.993615 -2743295432.993615 -2743295432.993615 1036453566.854964 
1036453566.854964 1036453566.854964 1036453566.854964 1898697769.906487 1898697769.906487 1898697769.906487 1898697769.906487 5326420830.196648 5326420830.196648 
5326420830.196648 5326420830.196648 3256702502.083941 3256702502.083941 3256702502.083941 3256702502.083941 2929839411.795388 2929839411.795388 2929839411.795388 
2929839411.795388 -541088877.3945549 -541088877.3945549 -541088877.3945549 -541088877.3945549 -4534223983.683941 -4534223983.683941 -4534223983.683941 -4534223983.683941 
-3956039480.620441 -3956039480.620441 -3956039480.620441 -3956039480.620441 -2618507105.367928 -2618507105.367928 -2618507105.367928 -2618507105.367928 769506259.2351977 
769506259.2351977 769506259.2351977 769506259.2351977 2182210557.653336 2182210557.653336 2182210557.653336 2182210557.653336 5148775255.454748 5148775255.454748 
5148775255.454748 5148775255.454748 3242652156.005833 3242652156.005833 3242652156.005833 3242652156.005833 3158311721.092671 3158311721.092671 3158311721.092671 
3158311721.092671 -929509707.8787923 -929509707.8787923 -929509707.8787923 -929509707.8787923 -2463175671.879607 -2463175671.879607 -2463175671.879607 -2463175671.879607 
-3750716646.590916 -3750716646.590916 -3750716646.590916 -3750716646.590916 -2660343670.186599 -2660343670.186599 -2660343670.186599 -2660343670.186599 635813484.6253619 
635813484.6253619 635813484.6253619 635813484.6253619 2436316504.040504 2436316504.040504 2436316504.040504 2436316504.040504 4869388853.476743 4869388853.476743 
4869388853.476743 4869388853.476743 3448530798.584401 3448530798.584401 3448530798.584401 3448530798.584401 3100011329.133614 3100011329.133614 3100011329.133614 
3100011329.133614 -1045077961.780694 -1045077961.780694 -1045077961.780694 -1045077961.780694 -2213799059.343949 -2213799059.343949 -2213799059.343949 -2213799059.343949 
-4820123631.969732 -4820123631.969732 -4820123631.969732 -4820123631.969732 -2773884695.914526 -2773884695.914526 -2773884695.914526 -2773884695.914526 635079988.2568762 
635079988.2568762 635079988.2568762 635079988.2568762 2563676707.691998 2563676707.691998 2563676707.691998 2563676707.691998 4652700038.45739 4652700038.45739 
4652700038.45739 4652700038.45739 3687724623.34708 3687724623.34708 3687724623.34708 3687724623.34708 2911937024.587661 2911937024.587661 2911937024.587661 
2911937024.587661 -963670060.8816911 -963670060.8816911 -963670060.8816911 -963670060.8816911 -2170006439.161262 -2170006439.161262 -2170006439.161262 -2170006439.161262 
-4961073529.237659 -4961073529.237659 -4961073529.237659 -4961073529.237659 -3582483657.13524 -3582483657.13524 -3582483657.13524 -3582483657.13524 765526297.2723675 
765526297.2723675 765526297.2723675 765526297.2723675 2540366369.396121 2540366369.396121 2540366369.396121 2540366369.396121 4570637700.511723 4570637700.511723 
4570637700.511723 4570637700.511723 3831209529.508264 3831209529.508264 3831209529.508264 3831209529.508264 2775498771.656842 2775498771.656842 2775498771.656842 
2775498771.656842 -896912627.7249094 -896912627.7249094 -896912627.7249094 -896912627.7249094 -2131593248.895392 -2131593248.895392 -2131593248.895392 -2131593248.895392 
-5100718585.387133 -5100718585.387133 -5100718585.387133 -5100718585.387133 -3382306374.171428 -3382306374.171428 -3382306374.171428 -3382306374.171428 -2971707832.175894 
-2971707832.175894 -2971707832.175894 -2971707832.175894 