Title = Test
FileType = Solution
Variables = q
Zone T = Test
ZoneType = FETriangle
Nodes = 400
Elements = 200
DataPacking = Block
StrandID = 10
SolutionTime = -1.799999999999995
2223.282116342727 2223.282116342727 2223.282116342727 2223.282116342727 4369.958740315484 4369.958740315484 4369.958740315484 4369.958740315484 4847.455402106179 4847.455402106179 
4847.455402106179 4847.455402106179 3473.394495925537 3473.394495925537 3473.394495925537 3473.394495925537 772.6091754093827 772.6091754093827 772.6091754093827 
772.6091754093827 -2223.281764806838 -2223.281764806838 -2223.281764806838 -2223.281764806838 -4369.957737674324 -4369.957737674324 -4369.957737674324 -4369.957737674324 
-4847.457373450668 -4847.457373450668 -4847.457373450668 -4847.457373450668 -3473.392313715713 -3473.392313715713 -3473.392313715713 -3473.392313715713 -772.6107404508936 
-772.6107404508936 -772.6107404508936 -772.6107404508936 4260.491843565466 4260.491843565466 4260.491843565466 4260.491843565466 4769.14926665949 4769.14926665949 
4769.14926665949 4769.14926665949 3456.157697147539 3456.157697147539 3456.157697147539 3456.157697147539 823.0262963491114 823.0262963491114 823.0262963491114 
823.0262963491114 -2124.468264637964 -2124.468264637964 -2124.468264637964 -2124.468264637964 -4260.491817425548 -4260.491817425548 -4260.491817425548 -4260.491817425548 
-4769.15067334758 -4769.15067334758 -4769.15067334758 -4769.15067334758 -3456.155452036215 -3456.155452036215 -3456.155452036215 -3456.155452036215 -823.0285161741838 
-823.0285161741838 -823.0285161741838 -823.0285161741838 2124.469619898859 2124.469619898859 2124.469619898859 2124.469619898859 4670.336688493997 4670.336688493997 
4670.336688493997 4670.336688493997 3346.69099355349 3346.69099355349 3346.69099355349 3346.69099355349 744.7200118376783 744.7200118376783 744.7200118376783 
744.7200118376783 -2141.704994690225 -2141.704994690225 -2141.704994690225 -2141.704994690225 -4210.074766252897 -4210.074766252897 -4210.074766252897 -4210.074766252897 
-4670.337091489115 -4670.337091489115 -4670.337091489115 -4670.337091489115 -3346.689514345217 -3346.689514345217 -3346.689514345217 -3346.689514345217 -744.7219950489696 
-744.7219950489696 -744.7219950489696 -744.7219950489696 2141.706719760519 2141.706719760519 2141.706719760519 2141.706719760519 4210.073948181931 4210.073948181931 
4210.073948181931 4210.073948181931 3296.273388210703 3296.273388210703 3296.273388210703 3296.273388210703 645.9069774845373 645.9069774845373 645.9069774845373 
645.9069774845373 -2251.171196009211 -2251.171196009211 -2251.171196009211 -2251.171196009211 -4288.381570676526 -4288.381570676526 -4288.381570676526 -4288.381570676526 
-4687.573263048629 -4687.573263048629 -4687.573263048629 -4687.573263048629 -3296.272970277247 -3296.272970277247 -3296.272970277247 -3296.272970277247 -645.9081270291696 
-645.9081270291696 -645.9081270291696 -645.9081270291696 2251.172631257024 2251.172631257024 2251.172631257024 2251.172631257024 4288.380400341004 4288.380400341004 
4288.380400341004 4288.380400341004 4687.573729746342 4687.573729746342 4687.573729746342 4687.573729746342 663.1438914748744 663.1438914748744 663.1438914748744 
663.1438914748744 -2301.588524759293 -2301.588524759293 -2301.588524759293 -2301.588524759293 -4387.194940450743 -4387.194940450743 -4387.194940450743 -4387.194940450743 
-4797.039090613676 -4797.039090613676 -4797.039090613676 -4797.039090613676 -3374.580172510878 -3374.580172510878 -3374.580172510878 -3374.580172510878 -663.1439981349632 
-663.1439981349632 -663.1439981349632 -663.1439981349632 2301.589121872496 2301.589121872496 2301.589121872496 2301.589121872496 4387.194085257017 4387.194085257017 
4387.194085257017 4387.194085257017 4797.039874923137 4797.039874923137 4797.039874923137 4797.039874923137 3374.579752942936 3374.579752942936 3374.579752942936 
3374.579752942936 -2223.282265011671 -2223.282265011671 -2223.282265011671 -2223.282265011671 -4369.958027997965 -4369.958027997965 -4369.958027997965 -4369.958027997965 
-4847.456386766222 -4847.456386766222 -4847.456386766222 -4847.456386766222 -3473.393580748103 -3473.393580748103 -3473.393580748103 -3473.393580748103 -772.6098079221365 
-772.6098079221365 -772.6098079221365 -772.6098079221365 2223.282018094241 2223.282018094241 2223.282018094241 2223.282018094241 4369.957912466914 4369.957912466914 
4369.957912466914 4369.957912466914 4847.456817726968 4847.456817726968 4847.456817726968 4847.456817726968 3473.393002680316 3473.393002680316 3473.393002680316 
3473.393002680316 772.6103174770608 772.6103174770608 772.6103174770608 772.6103174770608 -4260.491510120082 -4260.491510120082 -4260.491510120082 -4260.491510120082 
-4769.150159267798 -4769.150159267798 -4769.150159267798 -4769.150159267798 -3456.156637061597 -3456.156637061597 -3456.156637061597 -3456.156637061597 -823.0271612548897 
-823.0271612548897 -823.0271612548897 -823.0271612548897 2124.468713441359 2124.468713441359 2124.468713441359 2124.468713441359 4260.491901232748 4260.491901232748 
4260.491901232748 4260.491901232748 4769.150044168052 4769.150044168052 4769.150044168052 4769.150044168052 3456.156435844378 3456.156435844378 3456.156435844378 
3456.156435844378 823.0275980408957 823.0275980408957 823.0275980408957 823.0275980408957 -2124.469225022586 -2124.469225022586 -2124.469225022586 -2124.469225022586 
-4670.337045185875 -4670.337045185875 -4670.337045185875 -4670.337045185875 -3346.690269921078 -3346.690269921078 -3346.690269921078 -3346.690269921078 -744.7207591272632 
-744.7207591272632 -744.7207591272632 -744.7207591272632 2141.705514571645 2141.705514571645 2141.705514571645 2141.705514571645 4210.074626124069 4210.074626124069 
4210.074626124069 4210.074626124069 4670.336746718658 4670.336746718658 4670.336746718658 4670.336746718658 3346.69033367786 3346.69033367786 3346.69033367786 
3346.69033367786 744.720949788481 744.720949788481 744.720949788481 744.720949788481 -2141.705884483094 -2141.705884483094 -2141.705884483094 -2141.705884483094 
-4210.074212163996 -4210.074212163996 -4210.074212163996 -4210.074212163996 -3296.27310852073 -3296.27310852073 -3296.27310852073 -3296.27310852073 -645.9073095615795 
-645.9073095615795 -645.9073095615795 -645.9073095615795 2251.171416961898 2251.171416961898 2251.171416961898 2251.171416961898 4288.381508031494 4288.381508031494 
4288.381508031494 4288.381508031494 4687.573129057481 4687.573129057481 4687.573129057481 4687.573129057481 3296.273372937719 3296.273372937719 3296.273372937719 
3296.273372937719 645.9074734367341 645.9074734367341 645.9074734367341 645.9074734367341 -2251.171942449824 -2251.171942449824 -2251.171942449824 -2251.171942449824 
-4288.38082274847 -4288.38082274847 -4288.38082274847 -4288.38082274847 -4687.573717143991 -4687.573717143991 -4687.573717143991 -4687.573717143991 -663.1439960547157 
-663.1439960547157 -663.1439960547157 -663.1439960547157 2301.588310450132 2301.588310450132 2301.588310450132 2301.588310450132 4387.195393697228 4387.195393697228 
4387.195393697228 4387.195393697228 4797.038582194955 4797.038582194955 4797.038582194955 4797.038582194955 3374.580629438334 3374.580629438334 3374.580629438334 
3374.580629438334 663.1436052660914 663.1436052660914 663.1436052660914 663.1436052660914 -2301.588835097778 -2301.588835097778 -2301.588835097778 -2301.588835097778 
-4387.194156576092 -4387.194156576092 -4387.194156576092 -4387.194156576092 -4797.040057079567 -4797.040057079567 -4797.040057079567 -4797.040057079567 -3374.579476239405 
-3374.579476239405 -3374.579476239405 -3374.579476239405 