Title = Test
FileType = Solution
Variables = q
Zone T = Test
ZoneType = FETriangle
Nodes = 400
Elements = 200
DataPacking = Block
StrandID = 8
SolutionTime = -0.9799999999999971
23.62384490861709 23.62384490861709 23.62384490861709 23.62384490861709 30.30892727238847 30.30892727238847 30.30892727238847 30.30892727238847 25.41702953660111 25.41702953660111 
25.41702953660111 25.41702953660111 10.81669044654961 10.81669044654961 10.81669044654961 10.81669044654961 -7.91525676901157 -7.91525676901157 -7.91525676901157 
-7.91525676901157 -23.623844928213 -23.623844928213 -23.623844928213 -23.623844928213 -30.30892725091532 -30.30892725091532 -30.30892725091532 -30.30892725091532 
-25.41702955188633 -25.41702955188633 -25.41702955188633 -25.41702955188633 -10.81669044263398 -10.81669044263398 -10.81669044263398 -10.81669044263398 7.915256778506238 
7.915256778506238 7.915256778506238 7.915256778506238 34.54541111614371 34.54541111614371 34.54541111614371 34.54541111614371 24.22027988717183 24.22027988717183 
24.22027988717183 24.22027988717183 4.64382498158233 4.64382498158233 4.64382498158233 4.64382498158233 -16.7064132439616 -16.7064132439616 -16.7064132439616 
-16.7064132439616 -31.67536943891498 -31.67536943891498 -31.67536943891498 -31.67536943891498 -34.54541109962367 -34.54541109962367 -34.54541109962367 -34.54541109962367 
-24.22027990239452 -24.22027990239452 -24.22027990239452 -24.22027990239452 -4.643824973178072 -4.643824973178072 -4.643824973178072 -4.643824973178072 16.70641324500968 
16.70641324500968 16.70641324500968 16.70641324500968 31.67536942816287 31.67536942816287 31.67536942816287 31.67536942816287 32.27180440091921 32.27180440091921 
32.27180440091921 32.27180440091921 8.880308830206708 8.880308830206708 8.880308830206708 8.880308830206708 -17.90316289853906 -17.90316289853906 -17.90316289853906 
-17.90316289853906 -37.84823489775381 -37.84823489775381 -37.84823489775381 -37.84823489775381 -43.33656757865202 -43.33656757865202 -43.33656757865202 -43.33656757865202 
-32.27180441310382 -32.27180441310382 -32.27180441310382 -32.27180441310382 -8.88030882016151 -8.88030882016151 -8.88030882016151 -8.88030882016151 17.90316289420947 
17.90316289420947 17.90316289420947 17.90316289420947 37.84823489510401 37.84823489510401 37.84823489510401 37.84823489510401 43.33656758777232 43.33656758777232 
43.33656758777232 43.33656758777232 17.671465306505 17.671465306505 17.671465306505 17.671465306505 -9.851638389366542 -9.851638389366542 -9.851638389366542 
-9.851638389366542 -33.6117510436873 -33.6117510436873 -33.6117510436873 -33.6117510436873 -44.53331723939084 -44.53331723939084 -44.53331723939084 -44.53331723939084 
-38.44466986814953 -38.44466986814953 -38.44466986814953 -38.44466986814953 -17.67146529914979 -17.67146529914979 -17.67146529914979 -17.67146529914979 9.851638382150199 
9.851638382150199 9.851638382150199 9.851638382150199 33.61175104805967 33.61175104805967 33.61175104805967 33.61175104805967 44.53331723917735 44.53331723917735 
44.53331723917735 44.53331723917735 38.44466986385143 38.44466986385143 38.44466986385143 38.44466986385143 -3.678772925408303 -3.678772925408303 -3.678772925408303 
-3.678772925408303 -24.82059456882775 -24.82059456882775 -24.82059456882775 -24.82059456882775 -36.48179272909474 -36.48179272909474 -36.48179272909474 -36.48179272909474 
-34.2081860148338 -34.2081860148338 -34.2081860148338 -34.2081860148338 -18.86821495755631 -18.86821495755631 -18.86821495755631 -18.86821495755631 3.678772922513263 
3.678772922513263 3.678772922513263 3.678772922513263 24.82059457376531 24.82059457376531 24.82059457376531 24.82059457376531 36.48179272404408 36.48179272404408 
36.48179272404408 36.48179272404408 34.20818601851722 34.20818601851722 34.20818601851722 34.20818601851722 18.86821495688132 18.86821495688132 18.86821495688132 
18.86821495688132 -23.62384491899387 -23.62384491899387 -23.62384491899387 -23.62384491899387 -30.30892726388598 -30.30892726388598 -30.30892726388598 -30.30892726388598 
-25.41702954167726 -25.41702954167726 -25.41702954167726 -25.41702954167726 -10.81669044544029 -10.81669044544029 -10.81669044544029 -10.81669044544029 7.915256772805053 
7.915256772805053 7.915256772805053 7.915256772805053 23.62384491985925 23.62384491985925 23.62384491985925 23.62384491985925 30.30892726026612 30.30892726026612 
30.30892726026612 30.30892726026612 25.41702954673092 25.41702954673092 25.41702954673092 25.41702954673092 10.81669044045858 10.81669044045858 10.81669044045858 
10.81669044045858 -7.91525677012363 -7.91525677012363 -7.91525677012363 -7.91525677012363 -34.54541110934693 -34.54541110934693 -34.54541110934693 -34.54541110934693 
-24.22027989163754 -24.22027989163754 -24.22027989163754 -24.22027989163754 -4.643824979992496 -4.643824979992496 -4.643824979992496 -4.643824979992496 16.70641324579905 
16.70641324579905 16.70641324579905 16.70641324579905 31.67536943261442 31.67536943261442 31.67536943261442 31.67536943261442 34.54541110934314 34.54541110934314 
34.54541110934314 34.54541110934314 24.22027989351087 24.22027989351087 24.22027989351087 24.22027989351087 4.643824976790319 4.643824976790319 4.643824976790319 
4.643824976790319 -16.70641324220684 -16.70641324220684 -16.70641324220684 -16.70641324220684 -31.67536943487243 -31.67536943487243 -31.67536943487243 -31.67536943487243 
-32.27180440338316 -32.27180440338316 -32.27180440338316 -32.27180440338316 -8.880308828746628 -8.880308828746628 -8.880308828746628 -8.880308828746628 17.90316289785424 
17.90316289785424 17.90316289785424 17.90316289785424 37.84823489637306 37.84823489637306 37.84823489637306 37.84823489637306 43.33656758374836 43.33656758374836 
43.33656758374836 43.33656758374836 32.27180440544676 32.27180440544676 32.27180440544676 32.27180440544676 8.88030882633981 8.88030882633981 8.88030882633981 
8.88030882633981 -17.90316289584633 -17.90316289584633 -17.90316289584633 -17.90316289584633 -37.84823489738712 -37.84823489738712 -37.84823489738712 -37.84823489738712 
-43.33656758440047 -43.33656758440047 -43.33656758440047 -43.33656758440047 -17.67146530980597 -17.67146530980597 -17.67146530980597 -17.67146530980597 9.851638392175854 
9.851638392175854 9.851638392175854 9.851638392175854 33.61175104239238 33.61175104239238 33.61175104239238 33.61175104239238 44.53331724040308 44.53331724040308 
44.53331724040308 44.53331724040308 38.44466986624088 38.44466986624088 38.44466986624088 38.44466986624088 17.67146530091104 17.67146530091104 17.67146530091104 
17.67146530091104 -9.85163838177917 -9.85163838177917 -9.85163838177917 -9.85163838177917 -33.61175105038734 -33.61175105038734 -33.61175105038734 -33.61175105038734 
-44.53331723762214 -44.53331723762214 -44.53331723762214 -44.53331723762214 -38.44466986252761 -38.44466986252761 -38.44466986252761 -38.44466986252761 3.678772934896405 
3.678772934896405 3.678772934896405 3.678772934896405 24.82059456051721 24.82059456051721 24.82059456051721 24.82059456051721 36.48179273439085 36.48179273439085 
36.48179273439085 36.48179273439085 34.20818601248118 34.20818601248118 34.20818601248118 34.20818601248118 18.86821495677072 18.86821495677072 18.86821495677072 
18.86821495677072 -3.678772918067667 -3.678772918067667 -3.678772918067667 -3.678772918067667 -24.82059458058579 -24.82059458058579 -24.82059458058579 -24.82059458058579 
-36.48179271873519 -36.48179271873519 -36.48179271873519 -36.48179271873519 -34.20818601824129 -34.20818601824129 -34.20818601824129 -34.20818601824129 -18.86821496342796 
-18.86821496342796 -18.86821496342796 -18.86821496342796 