Title = Test
FileType = Solution
Variables = q
Zone T = Test
ZoneType = FETriangle
Nodes = 400
Elements = 200
DataPacking = Block
StrandID = 4
SolutionTime = -0.05999999999999936
0.1004093181008732 0.1004093181008732 0.1004093181008732 0.1004093181008732 0.2571761488322718 0.2571761488322718 0.2571761488322718 0.2571761488322718 0.315710431805545 0.315710431805545 
0.315710431805545 0.315710431805545 0.2536540604320046 0.2536540604320046 0.2536540604320046 0.2536540604320046 0.09471045935785896 0.09471045935785896 0.09471045935785896 
0.09471045935785896 -0.1004093181008731 -0.1004093181008731 -0.1004093181008731 -0.1004093181008731 -0.257176148832272 -0.257176148832272 -0.257176148832272 -0.257176148832272 
-0.3157104318055442 -0.3157104318055442 -0.3157104318055442 -0.3157104318055442 -0.2536540604320047 -0.2536540604320047 -0.2536540604320047 -0.2536540604320047 -0.09471045935785911 
-0.09471045935785911 -0.09471045935785911 -0.09471045935785911 0.2571667942449687 0.2571667942449687 0.2571667942449687 0.2571667942449687 0.6614039521175963 0.6614039521175963 
0.6614039521175963 0.6614039521175963 0.8130072805748095 0.8130072805748095 0.8130072805748095 0.8130072805748095 0.6540694609535687 0.6540694609535687 0.6540694609535687 
0.6540694609535687 0.245299338251386 0.245299338251386 0.245299338251386 0.245299338251386 -0.2571667942449695 -0.2571667942449695 -0.2571667942449695 -0.2571667942449695 
-0.6614039521175961 -0.6614039521175961 -0.6614039521175961 -0.6614039521175961 -0.8130072805748095 -0.8130072805748095 -0.8130072805748095 -0.8130072805748095 -0.6540694609535682 
-0.6540694609535682 -0.6540694609535682 -0.6540694609535682 -0.2452993382513853 -0.2452993382513853 -0.2452993382513853 -0.2452993382513853 0.3156952957653371 0.3156952957653371 
0.3156952957653371 0.3156952957653371 0.8129979259875075 0.8129979259875075 0.8129979259875075 0.8129979259875075 0.9997629812656199 0.9997629812656199 0.9997629812656199 
0.9997629812656199 0.8046525583941901 0.8046525583941901 0.8046525583941901 0.8046525583941901 0.3021922073507402 0.3021922073507402 0.3021922073507402 0.3021922073507402 
-0.3156952957653373 -0.3156952957653373 -0.3156952957653373 -0.3156952957653373 -0.812997925987507 -0.812997925987507 -0.812997925987507 -0.812997925987507 -0.9997629812656197 
-0.9997629812656197 -0.9997629812656197 -0.9997629812656197 -0.8046525583941917 -0.8046525583941917 -0.8046525583941917 -0.8046525583941917 -0.3021922073507398 -0.3021922073507398 
-0.3021922073507398 -0.3021922073507398 0.2536389243917977 0.2536389243917977 0.2536389243917977 0.2536389243917977 0.6540543249133604 0.6540543249133604 0.6540543249133604 
0.6540543249133604 0.804643203806888 0.804643203806888 0.804643203806888 0.804643203806888 0.647885727662792 0.647885727662792 0.647885727662792 0.647885727662792 
0.2436579243774681 0.2436579243774681 0.2436579243774681 0.2436579243774681 -0.2536389243917979 -0.2536389243917979 -0.2536389243917979 -0.2536389243917979 -0.6540543249133612 
-0.6540543249133612 -0.6540543249133612 -0.6540543249133612 -0.8046432038068884 -0.8046432038068884 -0.8046432038068884 -0.8046432038068884 -0.6478857276627921 -0.6478857276627921 
-0.6478857276627921 -0.6478857276627921 -0.2436579243774681 -0.2436579243774681 -0.2436579243774681 -0.2436579243774681 0.09470110477055607 0.09470110477055607 0.09470110477055607 
0.09470110477055607 0.2452842022111787 0.2452842022111787 0.2452842022111787 0.2452842022111787 0.3021770713105334 0.3021770713105334 0.3021770713105334 0.3021770713105334 
0.2436485697901647 0.2436485697901647 0.2436485697901647 0.2436485697901647 0.09205459592025425 0.09205459592025425 0.09205459592025425 0.09205459592025425 -0.09470110477055622 
-0.09470110477055622 -0.09470110477055622 -0.09470110477055622 -0.2452842022111782 -0.2452842022111782 -0.2452842022111782 -0.2452842022111782 -0.3021770713105332 -0.3021770713105332 
-0.3021770713105332 -0.3021770713105332 -0.2436485697901647 -0.2436485697901647 -0.2436485697901647 -0.2436485697901647 -0.0920545959202542 -0.0920545959202542 -0.0920545959202542 
-0.0920545959202542 -0.1004093181008732 -0.1004093181008732 -0.1004093181008732 -0.1004093181008732 -0.2571761488322722 -0.2571761488322722 -0.2571761488322722 -0.2571761488322722 
-0.3157104318055447 -0.3157104318055447 -0.3157104318055447 -0.3157104318055447 -0.2536540604320051 -0.2536540604320051 -0.2536540604320051 -0.2536540604320051 -0.09471045935785916 
-0.09471045935785916 -0.09471045935785916 -0.09471045935785916 0.1004093181008734 0.1004093181008734 0.1004093181008734 0.1004093181008734 0.2571761488322723 0.2571761488322723 
0.2571761488322723 0.2571761488322723 0.3157104318055444 0.3157104318055444 0.3157104318055444 0.3157104318055444 0.2536540604320051 0.2536540604320051 0.2536540604320051 
0.2536540604320051 0.09471045935785896 0.09471045935785896 0.09471045935785896 0.09471045935785896 -0.257166794244969 -0.257166794244969 -0.257166794244969 -0.257166794244969 
-0.6614039521175966 -0.6614039521175966 -0.6614039521175966 -0.6614039521175966 -0.81300728057481 -0.81300728057481 -0.81300728057481 -0.81300728057481 -0.6540694609535678 
-0.6540694609535678 -0.6540694609535678 -0.6540694609535678 -0.2452993382513858 -0.2452993382513858 -0.2452993382513858 -0.2452993382513858 0.2571667942449691 0.2571667942449691 
0.2571667942449691 0.2571667942449691 0.6614039521175971 0.6614039521175971 0.6614039521175971 0.6614039521175971 0.8130072805748103 0.8130072805748103 0.8130072805748103 
0.8130072805748103 0.6540694609535682 0.6540694609535682 0.6540694609535682 0.6540694609535682 0.2452993382513857 0.2452993382513857 0.2452993382513857 0.2452993382513857 
-0.3156952957653371 -0.3156952957653371 -0.3156952957653371 -0.3156952957653371 -0.8129979259875075 -0.8129979259875075 -0.8129979259875075 -0.8129979259875075 -0.9997629812656195 
-0.9997629812656195 -0.9997629812656195 -0.9997629812656195 -0.8046525583941904 -0.8046525583941904 -0.8046525583941904 -0.8046525583941904 -0.3021922073507401 -0.3021922073507401 
-0.3021922073507401 -0.3021922073507401 0.3156952957653371 0.3156952957653371 0.3156952957653371 0.3156952957653371 0.812997925987508 0.812997925987508 0.812997925987508 
0.812997925987508 0.999762981265619 0.999762981265619 0.999762981265619 0.999762981265619 0.8046525583941904 0.8046525583941904 0.8046525583941904 0.8046525583941904 
0.3021922073507403 0.3021922073507403 0.3021922073507403 0.3021922073507403 -0.253638924391798 -0.253638924391798 -0.253638924391798 -0.253638924391798 -0.6540543249133607 
-0.6540543249133607 -0.6540543249133607 -0.6540543249133607 -0.8046432038068861 -0.8046432038068861 -0.8046432038068861 -0.8046432038068861 -0.6478857276627926 -0.6478857276627926 
-0.6478857276627926 -0.6478857276627926 -0.2436579243774681 -0.2436579243774681 -0.2436579243774681 -0.2436579243774681 0.2536389243917982 0.2536389243917982 0.2536389243917982 
0.2536389243917982 0.6540543249133608 0.6540543249133608 0.6540543249133608 0.6540543249133608 0.8046432038068888 0.8046432038068888 0.8046432038068888 0.8046432038068888 
0.6478857276627901 0.6478857276627901 0.6478857276627901 0.6478857276627901 0.2436579243774684 0.2436579243774684 0.2436579243774684 0.2436579243774684 -0.09470110477055606 
-0.09470110477055606 -0.09470110477055606 -0.09470110477055606 -0.2452842022111787 -0.2452842022111787 -0.2452842022111787 -0.2452842022111787 -0.3021770713105336 -0.3021770713105336 
-0.3021770713105336 -0.3021770713105336 -0.2436485697901636 -0.2436485697901636 -0.2436485697901636 -0.2436485697901636 -0.092054595920254 -0.092054595920254 -0.092054595920254 
-0.092054595920254 0.09470110477055563 0.09470110477055563 0.09470110477055563 0.09470110477055563 0.2452842022111785 0.2452842022111785 0.2452842022111785 0.2452842022111785 
0.302177071310533 0.302177071310533 0.302177071310533 0.302177071310533 0.2436485697901649 0.2436485697901649 0.2436485697901649 0.2436485697901649 0.09205459592025428 
0.09205459592025428 0.09205459592025428 0.09205459592025428 