Title = Test
FileType = Solution
Variables = q
Zone T = Test
ZoneType = FETriangle
Nodes = 400
Elements = 200
DataPacking = Block
StrandID = 17
SolutionTime = -5.699999999999989
-936041580192683.2 -936041580192683.2 -936041580192683.2 -936041580192683.2 728112595988309.2 728112595988309.2 728112595988309.2 728112595988309.2 -464715814369131.3 -464715814369131.3 
-464715814369131.3 -464715814369131.3 353645484782625.1 353645484782625.1 353645484782625.1 353645484782625.1 -356665243579449.8 -356665243579449.8 -356665243579449.8 
-356665243579449.8 497682069665887 497682069665887 497682069665887 497682069665887 -772616862568668.6 -772616862568668.6 -772616862568668.6 -772616862568668.6 
975074011198442.2 975074011198442.2 975074011198442.2 975074011198442.2 -1134928193189902 -1134928193189902 -1134928193189902 -1134928193189902 1110453532264663 
1110453532264663 1110453532264663 1110453532264663 1162604198077494 1162604198077494 1162604198077494 1162604198077494 -745871852409529.2 -745871852409529.2 
-745871852409529.2 -745871852409529.2 420635897347748.6 420635897347748.6 420635897347748.6 420635897347748.6 -227925420713200.8 -227925420713200.8 -227925420713200.8 
-227925420713200.8 269229242586519 269229242586519 269229242586519 269229242586519 -582842121682764.5 -582842121682764.5 -582842121682764.5 -582842121682764.5 
947405416293549.6 947405416293549.6 947405416293549.6 947405416293549.6 -1326477041444405 -1326477041444405 -1326477041444405 -1326477041444405 1492084093969181 
1492084093969181 1492084093969181 1492084093969181 -1408842412024676 -1408842412024676 -1408842412024676 -1408842412024676 -1128970756624358 -1128970756624358 
-1128970756624358 -1128970756624358 614643487389513.6 614643487389513.6 614643487389513.6 614643487389513.6 -165473377617417.7 -165473377617417.7 -165473377617417.7 
-165473377617417.7 -21699045752295.5 -21699045752295.5 -21699045752295.5 -21699045752295.5 -184667208719720.7 -184667208719720.7 -184667208719720.7 -184667208719720.7 
610484997788132.8 610484997788132.8 610484997788132.8 610484997788132.8 -1193819484007010 -1193819484007010 -1193819484007010 -1193819484007010 1621078717687057 
1621078717687057 1621078717687057 1621078717687057 -1754351061524312 -1754351061524312 -1754351061524312 -1754351061524312 1602773731380483 1602773731380483 
1602773731380483 1602773731380483 887040411398784 887040411398784 887040411398784 887040411398784 -253052928840811 -253052928840811 -253052928840811 
-253052928840811 -203143806470233.7 -203143806470233.7 -203143806470233.7 -203143806470233.7 247913088011974.4 247913088011974.4 247913088011974.4 247913088011974.4 
49750339018186.08 49750339018186.08 49750339018186.08 49750339018186.08 -683199310761021.5 -683199310761021.5 -683199310761021.5 -683199310761021.5 1314433040081922 
1314433040081922 1314433040081922 1314433040081922 -1718037191721694 -1718037191721694 -1718037191721694 -1718037191721694 1799246233385260 1799246233385260 
1799246233385260 1799246233385260 -1440949874102431 -1440949874102431 -1440949874102431 -1440949874102431 -529827228653716.6 -529827228653716.6 -529827228653716.6 
-529827228653716.6 -80899084160586.66 -80899084160586.66 -80899084160586.66 -80899084160586.66 391241582430289 391241582430289 391241582430289 391241582430289 
-366158462829595.3 -366158462829595.3 -366158462829595.3 -366158462829595.3 -103035684442299.7 -103035684442299.7 -103035684442299.7 -103035684442299.7 745429945721571.8 
745429945721571.8 745429945721571.8 745429945721571.8 -1322799803874318 -1322799803874318 -1322799803874318 -1322799803874318 1664372148478248 1664372148478248 
1664372148478248 1664372148478248 -1556200098682089 -1556200098682089 -1556200098682089 -1556200098682089 1157876686012557 1157876686012557 1157876686012557 
1157876686012557 330794678336457.3 330794678336457.3 330794678336457.3 330794678336457.3 106019822657299.2 106019822657299.2 106019822657299.2 106019822657299.2 
-343501632971498.5 -343501632971498.5 -343501632971498.5 -343501632971498.5 166761236241314.6 166761236241314.6 166761236241314.6 166761236241314.6 276315805285423 
276315805285423 276315805285423 276315805285423 -824736576183859.6 -824736576183859.6 -824736576183859.6 -824736576183859.6 1308121527699369 1308121527699369 
1308121527699369 1308121527699369 -1450664224458718 -1450664224458718 -1450664224458718 -1450664224458718 1322130203712548 1322130203712548 1322130203712548 
1322130203712548 -891240840318406.6 -891240840318406.6 -891240840318406.6 -891240840318406.6 -405999233846693.6 -405999233846693.6 -405999233846693.6 -405999233846693.6 
58495322492292.66 58495322492292.66 58495322492292.66 58495322492292.66 18680853548776.33 18680853548776.33 18680853548776.33 18680853548776.33 131536065387908 
131536065387908 131536065387908 131536065387908 -469434543833641.1 -469434543833641.1 -469434543833641.1 -469434543833641.1 902920246214282.1 902920246214282.1 
902920246214282.1 902920246214282.1 -1164482749986768 -1164482749986768 -1164482749986768 -1164482749986768 1273904503313444 1273904503313444 1273904503313444 
1273904503313444 -1117013105358313 -1117013105358313 -1117013105358313 -1117013105358313 771392642068793.2 771392642068793.2 771392642068793.2 771392642068793.2 
511973622585490 511973622585490 511973622585490 511973622585490 -339482484800155.3 -339482484800155.3 -339482484800155.3 -339482484800155.3 265747733692650 
265747733692650 265747733692650 265747733692650 -344591322011503.5 -344591322011503.5 -344591322011503.5 -344591322011503.5 589133890317401.1 589133890317401.1 
589133890317401.1 589133890317401.1 -799924987984122.2 -799924987984122.2 -799924987984122.2 -799924987984122.2 1007305245208808 1007305245208808 1007305245208808 
1007305245208808 -1058343911223330 -1058343911223330 -1058343911223330 -1058343911223330 959233054652536 959233054652536 959233054652536 959233054652536 
-791050840437858.2 -791050840437858.2 -791050840437858.2 -791050840437858.2 -650213393493565.2 -650213393493565.2 -650213393493565.2 -650213393493565.2 498710164520552.3 
498710164520552.3 498710164520552.3 498710164520552.3 -400240334239964.5 -400240334239964.5 -400240334239964.5 -400240334239964.5 441682855481886.8 441682855481886.8 
441682855481886.8 441682855481886.8 -504200106111149 -504200106111149 -504200106111149 -504200106111149 670618938343491.1 670618938343491.1 670618938343491.1 
670618938343491.1 -798029362200551 -798029362200551 -798029362200551 -798029362200551 864134985262661.6 864134985262661.6 864134985262661.6 864134985262661.6 
-892973099798031.2 -892973099798031.2 -892973099798031.2 -892973099798031.2 770509352234760.6 770509352234760.6 770509352234760.6 770509352234760.6 758644091923083 
758644091923083 758644091923083 758644091923083 -586677151305963 -586677151305963 -586677151305963 -586677151305963 480768651947715.6 480768651947715.6 
480768651947715.6 480768651947715.6 -381163160776106 -381163160776106 -381163160776106 -381163160776106 433572851255178 433572851255178 433572851255178 
433572851255178 -536434665894853.3 -536434665894853.3 -536434665894853.3 -536434665894853.3 674487226562587.2 674487226562587.2 674487226562587.2 674487226562587.2 
-845048468307762.2 -845048468307762.2 -845048468307762.2 -845048468307762.2 882779440087298.2 882779440087298.2 882779440087298.2 882779440087298.2 -880928815491271.2 
-880928815491271.2 -880928815491271.2 -880928815491271.2 