Title = Test
FileType = Solution
Variables = q
Zone T = Test
ZoneType = FETriangle
Nodes = 400
Elements = 200
DataPacking = Block
StrandID = 5
SolutionTime = -0.199999999999999
0.9708769779173005 0.9708769779173005 0.9708769779173005 0.9708769779173005 1.04053667973163 1.04053667973163 1.04053667973163 1.04053667973163 0.7127467364294486 0.7127467364294486 
0.7127467364294486 0.7127467364294486 0.1127117651817576 0.1127117651817576 0.1127117651817576 0.1127117651817576 -0.530375269433336 -0.530375269433336 -0.530375269433336 
-0.530375269433336 -0.9708769779172968 -0.9708769779172968 -0.9708769779172968 -0.9708769779172968 -1.040536679731632 -1.040536679731632 -1.040536679731632 -1.040536679731632 
-0.7127467364294391 -0.7127467364294391 -0.7127467364294391 -0.7127467364294391 -0.1127117651817732 -0.1127117651817732 -0.1127117651817732 -0.1127117651817732 0.530375269433343 
0.530375269433343 0.530375269433343 0.530375269433343 1.392203066382409 1.392203066382409 1.392203066382409 1.392203066382409 1.472126050174123 1.472126050174123 
1.472126050174123 1.472126050174123 0.9897469185234404 0.9897469185234404 0.9897469185234404 0.9897469185234404 0.1293181042572993 0.1293181042572993 0.1293181042572993 
0.1293181042572993 -0.7805058304744518 -0.7805058304744518 -0.7805058304744518 -0.7805058304744518 -1.392203066382417 -1.392203066382417 -1.392203066382417 -1.392203066382417 
-1.472126050174118 -1.472126050174118 -1.472126050174118 -1.472126050174118 -0.9897469185234465 -0.9897469185234465 -0.9897469185234465 -0.9897469185234465 -0.1293181042572888 
-0.1293181042572888 -0.1293181042572888 -0.1293181042572888 0.7805058304744528 0.7805058304744528 0.7805058304744528 0.7805058304744528 1.281754902731268 1.281754902731268 
1.281754902731268 1.281754902731268 1.341413305174237 1.341413305174237 1.341413305174237 1.341413305174237 0.8886974180019636 0.8886974180019636 0.8886974180019636 
0.8886974180019636 0.09652932286722082 0.09652932286722082 0.09652932286722082 0.09652932286722082 -0.732509692691775 -0.732509692691775 -0.732509692691775 -0.732509692691775 
-1.281754902731267 -1.281754902731267 -1.281754902731267 -1.281754902731267 -1.34141330517424 -1.34141330517424 -1.34141330517424 -1.34141330517424 -0.8886974180019604 
-0.8886974180019604 -0.8886974180019604 -0.8886974180019604 -0.09652932286723548 -0.09652932286723548 -0.09652932286723548 -0.09652932286723548 0.7325096926917887 0.7325096926917887 
0.7325096926917887 0.7325096926917887 0.6817199314836049 0.6817199314836049 0.6817199314836049 0.6817199314836049 0.6983262705591073 0.6983262705591073 0.6983262705591073 
0.6983262705591073 0.4481957095180209 0.4481957095180209 0.4481957095180209 0.4481957095180209 0.02686962105289448 0.02686962105289448 0.02686962105289448 0.02686962105289448 
-0.4047197493895938 -0.4047197493895938 -0.4047197493895938 -0.4047197493895938 -0.6817199314836018 -0.6817199314836018 -0.6817199314836018 -0.6817199314836018 -0.6983262705591184 
-0.6983262705591184 -0.6983262705591184 -0.6983262705591184 -0.4481957095180146 -0.4481957095180146 -0.4481957095180146 -0.4481957095180146 -0.02686962105288833 -0.02686962105288833 
-0.02686962105288833 -0.02686962105288833 0.404719749389585 0.404719749389585 0.404719749389585 0.404719749389585 -0.1787088827825599 -0.1787088827825599 -0.1787088827825599 
-0.1787088827825599 -0.2114976641726178 -0.2114976641726178 -0.2114976641726178 -0.2114976641726178 -0.1635015263899554 -0.1635015263899554 -0.1635015263899554 -0.1635015263899554 
-0.0530533627388128 -0.0530533627388128 -0.0530533627388128 -0.0530533627388128 0.07765938226108043 0.07765938226108043 0.07765938226108043 0.07765938226108043 0.178708882782558 
0.178708882782558 0.178708882782558 0.178708882782558 0.2114976641726271 0.2114976641726271 0.2114976641726271 0.2114976641726271 0.163501526389951 0.163501526389951 
0.163501526389951 0.163501526389951 0.05305336273881001 0.05305336273881001 0.05305336273881001 0.05305336273881001 -0.07765938226107781 -0.07765938226107781 -0.07765938226107781 
-0.07765938226107781 -0.9708769779172981 -0.9708769779172981 -0.9708769779172981 -0.9708769779172981 -1.040536679731632 -1.040536679731632 -1.040536679731632 -1.040536679731632 
-0.7127467364294418 -0.7127467364294418 -0.7127467364294418 -0.7127467364294418 -0.1127117651817695 -0.1127117651817695 -0.1127117651817695 -0.1127117651817695 0.5303752694333417 
0.5303752694333417 0.5303752694333417 0.5303752694333417 0.9708769779173002 0.9708769779173002 0.9708769779173002 0.9708769779173002 1.040536679731628 1.040536679731628 
1.040536679731628 1.040536679731628 0.7127467364294418 0.7127467364294418 0.7127467364294418 0.7127467364294418 0.1127117651817721 0.1127117651817721 0.1127117651817721 
0.1127117651817721 -0.530375269433345 -0.530375269433345 -0.530375269433345 -0.530375269433345 -1.392203066382411 -1.392203066382411 -1.392203066382411 -1.392203066382411 
-1.472126050174122 -1.472126050174122 -1.472126050174122 -1.472126050174122 -0.989746918523448 -0.989746918523448 -0.989746918523448 -0.989746918523448 -0.129318104257286 
-0.129318104257286 -0.129318104257286 -0.129318104257286 0.7805058304744472 0.7805058304744472 0.7805058304744472 0.7805058304744472 1.392203066382413 1.392203066382413 
1.392203066382413 1.392203066382413 1.472126050174126 1.472126050174126 1.472126050174126 1.472126050174126 0.9897469185234451 0.9897469185234451 0.9897469185234451 
0.9897469185234451 0.1293181042572868 0.1293181042572868 0.1293181042572868 0.1293181042572868 -0.7805058304744509 -0.7805058304744509 -0.7805058304744509 -0.7805058304744509 
-1.281754902731276 -1.281754902731276 -1.281754902731276 -1.281754902731276 -1.341413305174232 -1.341413305174232 -1.341413305174232 -1.341413305174232 -0.8886974180019589 
-0.8886974180019589 -0.8886974180019589 -0.8886974180019589 -0.09652932286722749 -0.09652932286722749 -0.09652932286722749 -0.09652932286722749 0.7325096926917749 0.7325096926917749 
0.7325096926917749 0.7325096926917749 1.281754902731271 1.281754902731271 1.281754902731271 1.281754902731271 1.341413305174239 1.341413305174239 1.341413305174239 
1.341413305174239 0.8886974180019505 0.8886974180019505 0.8886974180019505 0.8886974180019505 0.09652932286723695 0.09652932286723695 0.09652932286723695 0.09652932286723695 
-0.7325096926917796 -0.7325096926917796 -0.7325096926917796 -0.7325096926917796 -0.6817199314836089 -0.6817199314836089 -0.6817199314836089 -0.6817199314836089 -0.6983262705591066 
-0.6983262705591066 -0.6983262705591066 -0.6983262705591066 -0.4481957095180106 -0.4481957095180106 -0.4481957095180106 -0.4481957095180106 -0.02686962105291061 -0.02686962105291061 
-0.02686962105291061 -0.02686962105291061 0.4047197493896063 0.4047197493896063 0.4047197493896063 0.4047197493896063 0.6817199314835989 0.6817199314835989 0.6817199314835989 
0.6817199314835989 0.69832627055911 0.69832627055911 0.69832627055911 0.69832627055911 0.4481957095180285 0.4481957095180285 0.4481957095180285 0.4481957095180285 
0.02686962105287086 0.02686962105287086 0.02686962105287086 0.02686962105287086 -0.4047197493895776 -0.4047197493895776 -0.4047197493895776 -0.4047197493895776 0.1787088827825631 
0.1787088827825631 0.1787088827825631 0.1787088827825631 0.2114976641726132 0.2114976641726132 0.2114976641726132 0.2114976641726132 0.1635015263899525 0.1635015263899525 
0.1635015263899525 0.1635015263899525 0.05305336273882862 0.05305336273882862 0.05305336273882862 0.05305336273882862 -0.07765938226109205 -0.07765938226109205 -0.07765938226109205 
-0.07765938226109205 -0.178708882782559 -0.178708882782559 -0.178708882782559 -0.178708882782559 -0.2114976641726197 -0.2114976641726197 -0.2114976641726197 -0.2114976641726197 
-0.1635015263899655 -0.1635015263899655 -0.1635015263899655 -0.1635015263899655 -0.05305336273879491 -0.05305336273879491 -0.05305336273879491 -0.05305336273879491 0.07765938226107011 
0.07765938226107011 0.07765938226107011 0.07765938226107011 