Title = Test
FileType = Solution
Variables = q
Zone T = Test
ZoneType = FETriangle
Nodes = 400
Elements = 200
DataPacking = Block
StrandID = 15
SolutionTime = -4.89999999999999
-1634207944551.868 -1634207944551.868 -1634207944551.868 -1634207944551.868 759774996810.97 759774996810.97 759774996810.97 759774996810.97 -929123498336.5615 -929123498336.5615 
-929123498336.5615 -929123498336.5615 476356599537.5295 476356599537.5295 476356599537.5295 476356599537.5295 -630458409023.4512 -630458409023.4512 -630458409023.4512 
-630458409023.4512 1242446252481.431 1242446252481.431 1242446252481.431 1242446252481.431 -1177535317815.685 -1177535317815.685 -1177535317815.685 -1177535317815.685 
1996839406995.891 1996839406995.891 1996839406995.891 1996839406995.891 -1786227818389.176 -1786227818389.176 -1786227818389.176 -1786227818389.176 1682135732291.923 
1682135732291.923 1682135732291.923 1682135732291.923 1342527728913.086 1342527728913.086 1342527728913.086 1342527728913.086 -1232559399455.444 -1232559399455.444 
-1232559399455.444 -1232559399455.444 452884081157.6312 452884081157.6312 452884081157.6312 452884081157.6312 -359564980920.4695 -359564980920.4695 -359564980920.4695 
-359564980920.4695 907208522846.7844 907208522846.7844 907208522846.7844 907208522846.7844 -988955476896.085 -988955476896.085 -988955476896.085 -988955476896.085 
2102885945554.155 2102885945554.155 2102885945554.155 2102885945554.155 -2214679766567.488 -2214679766567.488 -2214679766567.488 -2214679766567.488 2339908156011.354 
2339908156011.354 2339908156011.354 2339908156011.354 -2349654810644.417 -2349654810644.417 -2349654810644.417 -2349654810644.417 -1692820507417.465 -1692820507417.465 
-1692820507417.465 -1692820507417.465 581287497921.3884 581287497921.3884 581287497921.3884 581287497921.3884 -99690567649.46114 -99690567649.46114 -99690567649.46114 
-99690567649.46114 356814549421.0284 356814549421.0284 356814549421.0284 356814549421.0284 -369777751886.8731 -369777751886.8731 -369777751886.8731 -369777751886.8731 
1665091245025.129 1665091245025.129 1665091245025.129 1665091245025.129 -2127427518287.705 -2127427518287.705 -2127427518287.705 -2127427518287.705 2629123785991.487 
2629123785991.487 2629123785991.487 2629123785991.487 -2903405213242.015 -2903405213242.015 -2903405213242.015 -2903405213242.015 1960804480125.299 1960804480125.299 
1960804480125.299 1960804480125.299 897203910561.0935 897203910561.0935 897203910561.0935 897203910561.0935 -89281333662.70973 -89281333662.70973 -89281333662.70973 
-89281333662.70973 -69369725400.03212 -69369725400.03212 -69369725400.03212 -69369725400.03212 392179130968.7184 392179130968.7184 392179130968.7184 392179130968.7184 
790253674738.7516 790253674738.7516 790253674738.7516 790253674738.7516 -1404105967320.139 -1404105967320.139 -1404105967320.139 -1404105967320.139 2248183991857.396 
2248183991857.396 2248183991857.396 2248183991857.396 -2916890033728.1 -2916890033728.1 -2916890033728.1 -2916890033728.1 2280820121556.573 2280820121556.573 
2280820121556.573 2280820121556.573 -2128993769572.351 -2128993769572.351 -2128993769572.351 -2128993769572.351 -480835386839.4438 -480835386839.4438 -480835386839.4438 
-480835386839.4438 27438051650.91433 27438051650.91433 27438051650.91433 27438051650.91433 723728876517.1062 723728876517.1062 723728876517.1062 723728876517.1062 
75105736240.40968 75105736240.40968 75105736240.40968 75105736240.40968 -509968691967.0125 -509968691967.0125 -509968691967.0125 -509968691967.0125 1441481723994.662 
1441481723994.662 1441481723994.662 1441481723994.662 -2413223597527.054 -2413223597527.054 -2413223597527.054 -2413223597527.054 2175888584122.264 2175888584122.264 
2175888584122.264 2175888584122.264 -2381048601265.079 -2381048601265.079 -2381048601265.079 -2381048601265.079 1341433305074.075 1341433305074.075 1341433305074.075 
1341433305074.075 657651610178.1858 657651610178.1858 657651610178.1858 657651610178.1858 360440334299.6255 360440334299.6255 360440334299.6255 360440334299.6255 
5529492680.590698 5529492680.590698 5529492680.590698 5529492680.590698 -23541088527.50434 -23541088527.50434 -23541088527.50434 -23541088527.50434 723008665861.6631 
723008665861.6631 723008665861.6631 723008665861.6631 -1725434998201.159 -1725434998201.159 -1725434998201.159 -1725434998201.159 1753535806994.058 1753535806994.058 
1753535806994.058 1753535806994.058 -2358225823669.098 -2358225823669.098 -2358225823669.098 -2358225823669.098 1716362862145.071 1716362862145.071 1716362862145.071 
1716362862145.071 -1109326861762.363 -1109326861762.363 -1109326861762.363 -1109326861762.363 -391886600364.6477 -391886600364.6477 -391886600364.6477 -391886600364.6477 
519602022942.0529 519602022942.0529 519602022942.0529 519602022942.0529 -127980340488.0183 -127980340488.0183 -127980340488.0183 -127980340488.0183 418306235116.1775 
418306235116.1775 418306235116.1775 418306235116.1775 -1173269317264.051 -1173269317264.051 -1173269317264.051 -1173269317264.051 1197668880587.907 1197668880587.907 
1197668880587.907 1197668880587.907 -2031214443117.54 -2031214443117.54 -2031214443117.54 -2031214443117.54 1768047558203.452 1768047558203.452 1768047558203.452 
1768047558203.452 -1560423980602.582 -1560423980602.582 -1560423980602.582 -1560423980602.582 1381149984988.277 1381149984988.277 1381149984988.277 1381149984988.277 
1138735206269.846 1138735206269.846 1138735206269.846 1138735206269.846 -554708684555.0502 -554708684555.0502 -554708684555.0502 -554708684555.0502 501912515444.0647 
501912515444.0647 501912515444.0647 501912515444.0647 -905785919030.8439 -905785919030.8439 -905785919030.8439 -905785919030.8439 706223326948.5376 706223326948.5376 
706223326948.5376 706223326948.5376 -1517368154819.221 -1517368154819.221 -1517368154819.221 -1517368154819.221 1434003751689.889 1434003751689.889 1434003751689.889 
1434003751689.889 -1546020786059.048 -1546020786059.048 -1546020786059.048 -1546020786059.048 1715925413120.213 1715925413120.213 1715925413120.213 1715925413120.213 
-972916669009.4905 -972916669009.4905 -972916669009.4905 -972916669009.4905 -955995671059.2487 -955995671059.2487 -955995671059.2487 -955995671059.2487 761548629126.666 
761548629126.666 761548629126.666 761548629126.666 -907154442316.479 -907154442316.479 -907154442316.479 -907154442316.479 438202231633.5822 438202231633.5822 
438202231633.5822 438202231633.5822 -1071010059244.547 -1071010059244.547 -1071010059244.547 -1071010059244.547 961147253039.1421 961147253039.1421 961147253039.1421 
961147253039.1421 -1204802719417.46 -1204802719417.46 -1204802719417.46 -1204802719417.46 1619207761265.393 1619207761265.393 1619207761265.393 1619207761265.393 
-1147102104939.601 -1147102104939.601 -1147102104939.601 -1147102104939.601 1505959121913.69 1505959121913.69 1505959121913.69 1505959121913.69 1119633541459.743 
1119633541459.743 1119633541459.743 1119633541459.743 -1133541074859.98 -1133541074859.98 -1133541074859.98 -1133541074859.98 449259361580.9657 449259361580.9657 
449259361580.9657 449259361580.9657 -868070118314.2905 -868070118314.2905 -868070118314.2905 -868070118314.2905 627793820729.4128 627793820729.4128 627793820729.4128 
627793820729.4128 -871982454183.8728 -871982454183.8728 -871982454183.8728 -871982454183.8728 1415612409813.88 1415612409813.88 1415612409813.88 1415612409813.88 
-1153311939489.808 -1153311939489.808 -1153311939489.808 -1153311939489.808 1725210698979.88 1725210698979.88 1725210698979.88 1725210698979.88 -1310604245717.026 
-1310604245717.026 -1310604245717.026 -1310604245717.026 