Title = Triangle150
FileType = Solution
Variables = q
Zone T = Triangle150
ZoneType = FETriangle
Nodes = 212082
Elements = 70694
DataPacking = Block
StrandID = 17
SolutionTime = 1.6
-0.6003508506365036 -0.6003508506365036 -0.6003508506365036 -0.6057448331989048 -0.6057448331989048 -0.6057448331989048 -0.6166812956355222 -0.6166812956355222 -0.6166812956355222 0.2511510364668955 
0.2511510364668955 0.2511510364668955 0.2512610414240446 0.2512610414240446 0.2512610414240446 0.2401601374387242 0.2401601374387242 0.2401601374387242 -0.7471011932890463 
-0.7471011932890463 -0.7471011932890463 -0.7560158607394435 -0.7560158607394435 -0.7560158607394435 -0.7614540863938613 -0.7614540863938613 -0.7614540863938613 0.0009745451152234193 
0.0009745451152234193 0.0009745451152234193 0.006281803647970493 0.006281803647970493 0.006281803647970493 -0.003502810441114136 -0.003502810441114136 -0.003502810441114136 -0.1900446525403627 
-0.1900446525403627 -0.1900446525403627 -0.1816893783798728 -0.1816893783798728 -0.1816893783798728 -0.1715665985377218 -0.1715665985377218 -0.1715665985377218 -0.131197298966727 
-0.131197298966727 -0.131197298966727 -0.1235955107071325 -0.1235955107071325 -0.1235955107071325 -0.1269484823974955 -0.1269484823974955 -0.1269484823974955 0.1284676762418332 
0.1284676762418332 0.1284676762418332 0.1325526798386644 0.1325526798386644 0.1325526798386644 0.1754531593855582 0.1754531593855582 0.1754531593855582 0.1803519409646192 
0.1803519409646192 0.1803519409646192 -0.05985462527951322 -0.05985462527951322 -0.05985462527951322 -0.05108065699600067 -0.05108065699600067 -0.05108065699600067 -0.1751467749102588 
-0.1751467749102588 -0.1751467749102588 -0.1679144123579037 -0.1679144123579037 -0.1679144123579037 0.2958042905845884 0.2958042905845884 0.2958042905845884 0.3121833226056898 
0.3121833226056898 0.3121833226056898 0.03367242335962238 0.03367242335962238 0.03367242335962238 0.02279538076921736 0.02279538076921736 0.02279538076921736 -0.2064648528798301 
-0.2064648528798301 -0.2064648528798301 -0.2153806262312452 -0.2153806262312452 -0.2153806262312452 0.7472905568554246 0.7472905568554246 0.7472905568554246 0.7385504247517118 
0.7385504247517118 0.7385504247517118 -0.08103341469251449 -0.08103341469251449 -0.08103341469251449 -0.08891599351203956 -0.08891599351203956 -0.08891599351203956 -0.7334333278379553 
-0.7334333278379553 -0.7334333278379553 -0.7445445754873387 -0.7445445754873387 -0.7445445754873387 -0.2301368032121843 -0.2301368032121843 -0.2301368032121843 -0.2458834683892737 
-0.2458834683892737 -0.2458834683892737 0.5964112575350851 0.5964112575350851 0.5964112575350851 0.6031889508088109 0.6031889508088109 0.6031889508088109 -0.651018480451075 
-0.651018480451075 -0.651018480451075 -0.6537207918406649 -0.6537207918406649 -0.6537207918406649 0.2607277373464617 0.2607277373464617 0.2607277373464617 0.2352986706186042 
0.2352986706186042 0.2352986706186042 0.2373965786855144 0.2373965786855144 0.2373965786855144 0.2197469846875568 0.2197469846875568 0.2197469846875568 -0.1234475560813125 
-0.1234475560813125 -0.1234475560813125 -0.1245613748410248 -0.1245613748410248 -0.1245613748410248 -0.7655731215015031 -0.7655731215015031 -0.7655731215015031 -0.7729694210023094 
-0.7729694210023094 -0.7729694210023094 0.1562578631380994 0.1562578631380994 0.1562578631380994 0.1371284105579489 0.1371284105579489 0.1371284105579489 -0.8491365499253983 
-0.8491365499253983 -0.8491365499253983 -0.8463190850657025 -0.8463190850657025 -0.8463190850657025 -0.7940507266000926 -0.7940507266000926 -0.7940507266000926 -0.7854790932164979 
-0.7854790932164979 -0.7854790932164979 0.04236030929730331 0.04236030929730331 0.04236030929730331 0.04745455007750571 0.04745455007750571 0.04745455007750571 0.3367648115306148 
0.3367648115306148 0.3367648115306148 0.3162505606925782 0.3162505606925782 0.3162505606925782 -0.3210468967895488 -0.3210468967895488 -0.3210468967895488 -0.3317180047378794 
-0.3317180047378794 -0.3317180047378794 -0.4691544959864138 -0.4691544959864138 -0.4691544959864138 -0.4597008440948112 -0.4597008440948112 -0.4597008440948112 -0.2439530041940664 
-0.2439530041940664 -0.2439530041940664 -0.2313730172086734 -0.2313730172086734 -0.2313730172086734 -0.2995036115330575 -0.2995036115330575 -0.2995036115330575 -0.3051279584094761 
-0.3051279584094761 -0.3051279584094761 -0.2058293256595626 -0.2058293256595626 -0.2058293256595626 -0.2146219661404118 -0.2146219661404118 -0.2146219661404118 -0.2929678048244577 
-0.2929678048244577 -0.2929678048244577 -0.2829595755514829 -0.2829595755514829 -0.2829595755514829 -0.7132143557573696 -0.7132143557573696 -0.7132143557573696 -0.7076956080132202 
-0.7076956080132202 -0.7076956080132202 -0.643641077898998 -0.643641077898998 -0.643641077898998 -0.6422576461885554 -0.6422576461885554 -0.6422576461885554 0.0421279545350958 
0.0421279545350958 0.0421279545350958 0.04416584461142223 0.04416584461142223 0.04416584461142223 0.1420619680266101 0.1420619680266101 0.1420619680266101 0.1309723000627303 
0.1309723000627303 0.1309723000627303 -0.04754061357134324 -0.04754061357134324 -0.04754061357134324 -0.04579686716328207 -0.04579686716328207 -0.04579686716328207 0.04367457508728678 
0.04367457508728678 0.04367457508728678 0.04459377041858949 0.04459377041858949 0.04459377041858949 -0.06028558064650866 -0.06028558064650866 -0.06028558064650866 -0.04376673411865088 
-0.04376673411865088 -0.04376673411865088 0.1332249640443846 0.1332249640443846 0.1332249640443846 0.1296841732851179 0.1296841732851179 0.1296841732851179 0.1568744527553953 
0.1568744527553953 0.1568744527553953 0.160845655889891 0.160845655889891 0.160845655889891 -0.6235047820940967 -0.6235047820940967 -0.6235047820940967 0.5812057653264417 
0.5812057653264417 0.5812057653264417 0.5925278247077854 0.5925278247077854 0.5925278247077854 0.1438832497420962 0.1438832497420962 0.1438832497420962 0.1380010085279416 
0.1380010085279416 0.1380010085279416 0.1398077768659966 0.1398077768659966 0.1398077768659966 0.1518874662657036 0.1518874662657036 0.1518874662657036 -0.7131964242354215 
-0.7131964242354215 -0.7131964242354215 -0.7159047292633023 -0.7159047292633023 -0.7159047292633023 0.6253414534992613 0.6253414534992613 0.6253414534992613 0.6243908109103911 
0.6243908109103911 0.6243908109103911 0.170632325522924 0.170632325522924 0.170632325522924 0.3425595941570255 0.3425595941570255 0.3425595941570255 0.6256424370809346 
0.6256424370809346 0.6256424370809346 0.6982312065332162 0.6982312065332162 0.6982312065332162 -0.04071068401623225 -0.04071068401623225 -0.04071068401623225 0.1690093148435258 
0.1690093148435258 0.1690093148435258 -0.03980893814412764 -0.03980893814412764 -0.03980893814412764 -0.2479782350375769 -0.2479782350375769 -0.2479782350375769 -0.2419085935305715 
-0.2419085935305715 -0.2419085935305715 -0.1856325348052901 -0.1856325348052901 -0.1856325348052901 0.5359671673568878 0.5359671673568878 0.5359671673568878 0.07611983461182724 
0.07611983461182724 0.07611983461182724 0.06438817311723778 0.06438817311723778 0.06438817311723778 0.2314631076059062 0.2314631076059062 0.2314631076059062 0.2115492870949601 
0.2115492870949601 0.2115492870949601 -0.8282765997225947 -0.8282765997225947 -0.8282765997225947 -0.8222444518807808 -0.8222444518807808 -0.8222444518807808 -0.7414811884703465 
-0.7414811884703465 -0.7414811884703465 -0.758593506622125 -0.758593506622125 -0.758593506622125 0.5683269662890419 0.5683269662890419 0.5683269662890419 0.5926478136612168 
0.5926478136612168 0.5926478136612168 -0.2588519924422876 -0.2588519924422876 -0.2588519924422876 -0.2831082673215531 -0.2831082673215531 -0.2831082673215531 0.4296003835825341 
0.4296003835825341 0.4296003835825341 0.4433679289555181 0.4433679289555181 0.4433679289555181 0.4706115850453168 0.4706115850453168 0.4706115850453168 0.4771539421907003 
0.4771539421907003 0.4771539421907003 0.1662962698129721 0.1662962698129721 0.1662962698129721 0.1423432208298997 0.1423432208298997 0.1423432208298997 -0.8611276005192183 
-0.8611276005192183 -0.8611276005192183 -0.8599063884382596 -0.8599063884382596 -0.8599063884382596 0.06372092716085162 0.06372092716085162 0.06372092716085162 0.05669616299034158 
0.05669616299034158 0.05669616299034158 -0.578166142116596 -0.578166142116596 -0.578166142116596 -0.5863425303091701 -0.5863425303091701 -0.5863425303091701 -0.09428725895126455 
-0.09428725895126455 -0.09428725895126455 -0.1008163114400196 -0.1008163114400196 -0.1008163114400196 0.6361904466800145 0.6361904466800145 0.6361904466800145 0.6322184643356723 
0.6322184643356723 0.6322184643356723 -0.1015603258463992 -0.1015603258463992 -0.1015603258463992 -0.08077750984100875 -0.08077750984100875 -0.08077750984100875 -0.1307573100348611 
-0.1307573100348611 -0.1307573100348611 -0.1347609330884823 -0.1347609330884823 -0.1347609330884823 0.5372007817355271 0.5372007817355271 0.5372007817355271 0.516405982845744 
0.516405982845744 0.516405982845744 0.6162032303701784 0.6162032303701784 0.6162032303701784 0.6165788642803329 0.6165788642803329 0.6165788642803329 0.8513990856937792 
0.8513990856937792 0.8513990856937792 0.8550901021988793 0.8550901021988793 0.8550901021988793 -0.06574975805133955 -0.06574975805133955 -0.06574975805133955 -0.06651025032122423 
-0.06651025032122423 -0.06651025032122423 -0.6453125776447731 -0.6453125776447731 -0.6453125776447731 -0.6307167102530531 -0.6307167102530531 -0.6307167102530531 -0.04324412960766774 
-0.04324412960766774 -0.04324412960766774 -0.06891950566143254 -0.06891950566143254 -0.06891950566143254 0.65429723438119 0.65429723438119 0.65429723438119 0.6550076818299226 
0.6550076818299226 0.6550076818299226 -0.3424857475594209 -0.3424857475594209 -0.3424857475594209 -0.3384241381860065 -0.3384241381860065 -0.3384241381860065 0.004108226277937197 
0.004108226277937197 0.004108226277937197 0.01419994552135802 0.01419994552135802 0.01419994552135802 0.1463027456104973 0.1463027456104973 0.1463027456104973 0.1430947735714518 
0.1430947735714518 0.1430947735714518 -0.5067748381879719 -0.5067748381879719 -0.5067748381879719 -0.4979815772568907 -0.4979815772568907 -0.4979815772568907 -0.8361241997611529 
-0.8361241997611529 -0.8361241997611529 -0.8307053050484192 -0.8307053050484192 -0.8307053050484192 -0.6661051852590798 -0.6661051852590798 -0.6661051852590798 -0.6888727417240054 
-0.6888727417240054 -0.6888727417240054 0.2440594243341139 0.2440594243341139 0.2440594243341139 0.2693165464343764 0.2693165464343764 0.2693165464343764 -0.4341797205007167 
-0.4341797205007167 -0.4341797205007167 -0.4579287599863754 -0.4579287599863754 -0.4579287599863754 -0.5321439795107523 -0.5321439795107523 -0.5321439795107523 -0.5574967389681859 
-0.5574967389681859 -0.5574967389681859 0.09106509878130742 0.09106509878130742 0.09106509878130742 0.08027811864746902 0.08027811864746902 0.08027811864746902 0.5888740745533023 
0.5888740745533023 0.5888740745533023 0.6072347318774101 0.6072347318774101 0.6072347318774101 -0.6076105065571574 -0.6076105065571574 -0.6076105065571574 -0.6221231763061721 
-0.6221231763061721 -0.6221231763061721 0.4818896008200144 0.4818896008200144 0.4818896008200144 0.4648356272567881 0.4648356272567881 0.4648356272567881 -0.2860204068285062 
-0.2860204068285062 -0.2860204068285062 -0.2901556282414114 -0.2901556282414114 -0.2901556282414114 0.2619009586342368 0.2619009586342368 0.2619009586342368 0.2859825799737411 
0.2859825799737411 0.2859825799737411 -0.04173881922283311 -0.04173881922283311 -0.04173881922283311 -0.06781948929116353 -0.06781948929116353 -0.06781948929116353 0.4031993588851565 
0.4031993588851565 0.4031993588851565 0.3999447855328944 0.3999447855328944 0.3999447855328944 0.7633088010221708 0.7633088010221708 0.7633088010221708 0.7482423906118154 
0.7482423906118154 0.7482423906118154 -0.07363444083257205 -0.07363444083257205 -0.07363444083257205 -0.09968455955676281 -0.09968455955676281 -0.09968455955676281 0.002144711225905505 
0.002144711225905505 0.002144711225905505 -0.00300940491774215 -0.00300940491774215 -0.00300940491774215 0.6498779862393694 0.6498779862393694 0.6498779862393694 0.6683376740987768 
0.6683376740987768 0.6683376740987768 0.1562117563343957 0.1562117563343957 0.1562117563343957 0.1642742729959006 0.1642742729959006 0.1642742729959006 -0.3098751144497441 
-0.3098751144497441 -0.3098751144497441 -0.296274357076034 -0.296274357076034 -0.296274357076034 0.06304048388639924 0.06304048388639924 0.06304048388639924 0.07105997417789503 
0.07105997417789503 0.07105997417789503 0.3514104432256756 0.3514104432256756 0.3514104432256756 0.3745579250369571 0.3745579250369571 0.3745579250369571 -0.1213342906585454 
-0.1213342906585454 -0.1213342906585454 -0.1246697573980076 -0.1246697573980076 -0.1246697573980076 0.1770826578595902 0.1770826578595902 0.1770826578595902 0.1720596086445874 
0.1720596086445874 0.1720596086445874 -0.05580318575858751 -0.05580318575858751 -0.05580318575858751 -0.02739483021591835 -0.02739483021591835 -0.02739483021591835 -0.2365715794735331 
-0.2365715794735331 -0.2365715794735331 -0.2572642254869608 -0.2572642254869608 -0.2572642254869608 0.08221545283125675 0.08221545283125675 0.08221545283125675 0.06384344583867774 
0.06384344583867774 0.06384344583867774 -0.1965546385348199 -0.1965546385348199 -0.1965546385348199 -0.2000366743950376 -0.2000366743950376 -0.2000366743950376 0.06609528382202591 
0.06609528382202591 0.06609528382202591 0.05702699949096524 0.05702699949096524 0.05702699949096524 0.08538923275165568 0.08538923275165568 0.08538923275165568 0.09482613320662921 
0.09482613320662921 0.09482613320662921 0.6707426220511552 0.6707426220511552 0.6707426220511552 0.6844662895085796 0.6844662895085796 0.6844662895085796 -0.2555429971754805 
-0.2555429971754805 -0.2555429971754805 -0.2655686944813511 -0.2655686944813511 -0.2655686944813511 0.5095054497538182 0.5095054497538182 0.5095054497538182 0.4849818306548225 
0.4849818306548225 0.4849818306548225 0.607917304363731 0.607917304363731 0.607917304363731 0.6047064041105893 0.6047064041105893 0.6047064041105893 0.1323208581918178 
0.1323208581918178 0.1323208581918178 0.1277549886519265 0.1277549886519265 0.1277549886519265 -0.5930666491207008 -0.5930666491207008 -0.5930666491207008 -0.6164130008295011 
-0.6164130008295011 -0.6164130008295011 0.5135896302404337 0.5135896302404337 0.5135896302404337 0.491860425309105 0.491860425309105 0.491860425309105 0.353569761619679 
0.353569761619679 0.353569761619679 0.3655907541238528 0.3655907541238528 0.3655907541238528 -0.2312878495065622 -0.2312878495065622 -0.2312878495065622 -0.263092609626233 
-0.263092609626233 -0.263092609626233 0.0462870499110041 0.0462870499110041 0.0462870499110041 0.04376195076798518 0.04376195076798518 0.04376195076798518 -0.2619574917686333 
-0.2619574917686333 -0.2619574917686333 -0.237059661670937 -0.237059661670937 -0.237059661670937 0.1190909853316176 0.1190909853316176 0.1190909853316176 0.1190767787358687 
0.1190767787358687 0.1190767787358687 0.1374115896303935 0.1374115896303935 0.1374115896303935 0.1401282006156846 0.1401282006156846 0.1401282006156846 0.2172599515483623 
0.2172599515483623 0.2172599515483623 0.2103531527421028 0.2103531527421028 0.2103531527421028 0.2275458046060393 0.2275458046060393 0.2275458046060393 0.272621487501067 
0.272621487501067 0.272621487501067 0.2333261174067466 0.2333261174067466 0.2333261174067466 0.2293740814624316 0.2293740814624316 0.2293740814624316 0.2095530941806564 
0.2095530941806564 0.2095530941806564 -0.838855754986783 -0.838855754986783 -0.838855754986783 -0.8388513449887164 -0.8388513449887164 -0.8388513449887164 -0.8442213458733169 
-0.8442213458733169 -0.8442213458733169 -0.4323742742132444 -0.4323742742132444 -0.4323742742132444 -0.4365331698809107 -0.4365331698809107 -0.4365331698809107 -0.4199405749778263 
-0.4199405749778263 -0.4199405749778263 -0.3392366306114157 -0.3392366306114157 -0.3392366306114157 -0.3572006440745462 -0.3572006440745462 -0.3572006440745462 -0.3528317428047941 
-0.3528317428047941 -0.3528317428047941 -0.1350440520239928 -0.1350440520239928 -0.1350440520239928 -0.1451600891371994 -0.1451600891371994 -0.1451600891371994 -0.1561428954187698 
-0.1561428954187698 -0.1561428954187698 -0.1504220456468504 -0.1504220456468504 -0.1504220456468504 -0.1424181055341489 -0.1424181055341489 -0.1424181055341489 -0.1211109572683575 
-0.1211109572683575 -0.1211109572683575 -0.1337428541430664 -0.1337428541430664 -0.1337428541430664 -0.1398960179554672 -0.1398960179554672 -0.1398960179554672 -0.1530060001310891 
-0.1530060001310891 -0.1530060001310891 0.7348943242382414 0.7348943242382414 0.7348943242382414 0.7174047517098174 0.7174047517098174 0.7174047517098174 0.711924223107592 
0.711924223107592 0.711924223107592 0.5528912806776484 0.5528912806776484 0.5528912806776484 0.5638248438062926 0.5638248438062926 0.5638248438062926 0.5719174725819128 
0.5719174725819128 0.5719174725819128 0.7349796946398147 0.7349796946398147 0.7349796946398147 0.7321242245398756 0.7321242245398756 0.7321242245398756 0.7427464506149088 
0.7427464506149088 0.7427464506149088 0.2381292318417634 0.2381292318417634 0.2381292318417634 0.2435624290352209 0.2435624290352209 0.2435624290352209 -0.8471707850732533 
-0.8471707850732533 -0.8471707850732533 -0.8445689084235593 -0.8445689084235593 -0.8445689084235593 -0.840313358408461 -0.840313358408461 -0.840313358408461 0.1932523254051585 
0.1932523254051585 0.1932523254051585 0.1827085707989584 0.1827085707989584 0.1827085707989584 0.164517200883442 0.164517200883442 0.164517200883442 -0.02410422399178729 
-0.02410422399178729 -0.02410422399178729 -0.01622752801238393 -0.01622752801238393 -0.01622752801238393 -0.0204951204159138 -0.0204951204159138 -0.0204951204159138 -0.06586702444946967 
-0.06586702444946967 -0.06586702444946967 -0.0584366426164758 -0.0584366426164758 -0.0584366426164758 -0.04913153717940859 -0.04913153717940859 -0.04913153717940859 0.02273111393707414 
0.02273111393707414 0.02273111393707414 0.03152752182620342 0.03152752182620342 0.03152752182620342 0.04301393099302912 0.04301393099302912 0.04301393099302912 -0.754939754333009 
-0.754939754333009 -0.754939754333009 -0.7602172983263089 -0.7602172983263089 -0.7602172983263089 -0.7653843378956298 -0.7653843378956298 -0.7653843378956298 0.2718198179586017 
0.2718198179586017 0.2718198179586017 0.2621312922404417 0.2621312922404417 0.2621312922404417 -0.6614021187284528 -0.6614021187284528 -0.6614021187284528 -0.6509191104294374 
-0.6509191104294374 -0.6509191104294374 0.0531482677461794 0.0531482677461794 0.0531482677461794 0.05497598662815118 0.05497598662815118 0.05497598662815118 -0.7410274576037847 
-0.7410274576037847 -0.7410274576037847 -0.746205957267922 -0.746205957267922 -0.746205957267922 -0.8209725950890012 -0.8209725950890012 -0.8209725950890012 -0.8236111234074103 
-0.8236111234074103 -0.8236111234074103 0.05475181824311975 0.05475181824311975 0.05475181824311975 0.06027380911421436 0.06027380911421436 0.06027380911421436 -0.3719310117719317 
-0.3719310117719317 -0.3719310117719317 -0.3641649955434765 -0.3641649955434765 -0.3641649955434765 0.4471300013257544 0.4471300013257544 0.4471300013257544 0.4585938581471514 
0.4585938581471514 0.4585938581471514 -0.02545036072680423 -0.02545036072680423 -0.02545036072680423 -0.03202597116550733 -0.03202597116550733 -0.03202597116550733 -0.7104748052564208 
-0.7104748052564208 -0.7104748052564208 -0.7036663179258034 -0.7036663179258034 -0.7036663179258034 -0.4582574297574934 -0.4582574297574934 -0.4582574297574934 -0.4534080151002283 
-0.4534080151002283 -0.4534080151002283 -0.1104949408171925 -0.1104949408171925 -0.1104949408171925 -0.09311034648117657 -0.09311034648117657 -0.09311034648117657 0.6182636001938321 
0.6182636001938321 0.6182636001938321 0.6202704204051299 0.6202704204051299 0.6202704204051299 0.007329443020528755 0.007329443020528755 0.007329443020528755 -0.006179438968249435 
-0.006179438968249435 -0.006179438968249435 -0.6213477361078219 -0.6213477361078219 -0.6213477361078219 -0.631558884016479 -0.631558884016479 -0.631558884016479 0.02734491875168288 
0.02734491875168288 0.02734491875168288 0.03640061651375613 0.03640061651375613 0.03640061651375613 0.2736198715213443 0.2736198715213443 0.2736198715213443 0.2847084224455602 
0.2847084224455602 0.2847084224455602 0.5867002741605775 0.5867002741605775 0.5867002741605775 0.5892081844899428 0.5892081844899428 0.5892081844899428 -0.5856949855794671 
-0.5856949855794671 -0.5856949855794671 -0.5973253807775956 -0.5973253807775956 -0.5973253807775956 0.3474427643763177 0.3474427643763177 0.3474427643763177 0.3557910993729053 
0.3557910993729053 0.3557910993729053 0.4320376882748572 0.4320376882748572 0.4320376882748572 0.4117233202157708 0.4117233202157708 0.4117233202157708 -0.1683341315617872 
-0.1683341315617872 -0.1683341315617872 -0.174844762243323 -0.174844762243323 -0.174844762243323 0.0880959624516441 0.0880959624516441 0.0880959624516441 0.1158003577324202 
0.1158003577324202 0.1158003577324202 0.2323325034743137 0.2323325034743137 0.2323325034743137 0.2424398176911901 0.2424398176911901 0.2424398176911901 -0.02103720783913442 
-0.02103720783913442 -0.02103720783913442 -0.0007343606180384481 -0.0007343606180384481 -0.0007343606180384481 -0.437659344508699 -0.437659344508699 -0.437659344508699 -0.4247523518691192 
-0.4247523518691192 -0.4247523518691192 -0.2367147226088462 -0.2367147226088462 -0.2367147226088462 -0.2563685966519573 -0.2563685966519573 -0.2563685966519573 0.08294081540748691 
0.08294081540748691 0.08294081540748691 0.09319035563522152 0.09319035563522152 0.09319035563522152 -0.5845318544641813 -0.5845318544641813 -0.5845318544641813 -0.5746028204597704 
-0.5746028204597704 -0.5746028204597704 0.4422898194556198 0.4422898194556198 0.4422898194556198 0.4515808206522881 0.4515808206522881 0.4515808206522881 -0.3870618026604088 
-0.3870618026604088 -0.3870618026604088 -0.3992434631397473 -0.3992434631397473 -0.3992434631397473 0.2589154175213251 0.2589154175213251 0.2589154175213251 0.2626514659162221 
0.2626514659162221 0.2626514659162221 0.6384813709442863 0.6384813709442863 0.6384813709442863 0.6354728960544858 0.6354728960544858 0.6354728960544858 0.2485552671513462 
0.2485552671513462 0.2485552671513462 0.264466935189469 0.264466935189469 0.264466935189469 -0.7635562933157339 -0.7635562933157339 -0.7635562933157339 -0.7613751285351105 
-0.7613751285351105 -0.7613751285351105 -0.05775970057725159 -0.05775970057725159 -0.05775970057725159 -0.05452023973101959 -0.05452023973101959 -0.05452023973101959 -0.05096356591689141 
-0.05096356591689141 -0.05096356591689141 -0.03762763580253565 -0.03762763580253565 -0.03762763580253565 -0.07860096485889045 -0.07860096485889045 -0.07860096485889045 -0.06334873541368581 
-0.06334873541368581 -0.06334873541368581 0.1614568887819968 0.1614568887819968 0.1614568887819968 0.1811744881447258 0.1811744881447258 0.1811744881447258 -0.6971721563165866 
-0.6971721563165866 -0.6971721563165866 -0.6876342263055327 -0.6876342263055327 -0.6876342263055327 -0.06423296283775642 -0.06423296283775642 -0.06423296283775642 -0.05158229293727257 
-0.05158229293727257 -0.05158229293727257 0.1619887681369323 0.1619887681369323 0.1619887681369323 0.1604003039291078 0.1604003039291078 0.1604003039291078 -0.04888348231587722 
-0.04888348231587722 -0.04888348231587722 -0.05353115667632248 -0.05353115667632248 -0.05353115667632248 -0.1145211585546605 -0.1145211585546605 -0.1145211585546605 -0.1159685540168016 
-0.1159685540168016 -0.1159685540168016 0.5466097331315447 0.5466097331315447 0.5466097331315447 0.5652806334813993 0.5652806334813993 0.5652806334813993 0.02645289011601448 
0.02645289011601448 0.02645289011601448 0.01833962661722559 0.01833962661722559 0.01833962661722559 0.01455044888101719 0.01455044888101719 0.01455044888101719 0.007660877389240838 
0.007660877389240838 0.007660877389240838 0.5053093959358128 0.5053093959358128 0.5053093959358128 0.5308350026072346 0.5308350026072346 0.5308350026072346 -0.1521368252977695 
-0.1521368252977695 -0.1521368252977695 -0.1658081044726455 -0.1658081044726455 -0.1658081044726455 0.3092708330745786 0.3092708330745786 0.3092708330745786 0.3164533366378569 
0.3164533366378569 0.3164533366378569 0.001276572567986079 0.001276572567986079 0.001276572567986079 -0.02349313875792185 -0.02349313875792185 -0.02349313875792185 -0.7992365411331015 
-0.7992365411331015 -0.7992365411331015 -0.7920538733767748 -0.7920538733767748 -0.7920538733767748 0.02785769513080462 0.02785769513080462 0.02785769513080462 0.03821748897868042 
0.03821748897868042 0.03821748897868042 -0.1941742143809543 -0.1941742143809543 -0.1941742143809543 -0.2038798006063763 -0.2038798006063763 -0.2038798006063763 -0.8412624163858144 
-0.8412624163858144 -0.8412624163858144 -0.8375809725310501 -0.8375809725310501 -0.8375809725310501 0.224829872960992 0.224829872960992 0.224829872960992 0.2149886985993621 
0.2149886985993621 0.2149886985993621 -0.5743265602254713 -0.5743265602254713 -0.5743265602254713 -0.5658362668652455 -0.5658362668652455 -0.5658362668652455 0.2021596583216663 
0.2021596583216663 0.2021596583216663 0.1919105068894812 0.1919105068894812 0.1919105068894812 0.3445944683412099 0.3445944683412099 0.3445944683412099 0.3360925984416832 
0.3360925984416832 0.3360925984416832 0.7274860988809109 0.7274860988809109 0.7274860988809109 0.7296209654151928 0.7296209654151928 0.7296209654151928 0.5055806587762635 
0.5055806587762635 0.5055806587762635 0.4978115011652534 0.4978115011652534 0.4978115011652534 -0.2358450535508804 -0.2358450535508804 -0.2358450535508804 -0.2393056523939223 
-0.2393056523939223 -0.2393056523939223 -0.05007966542725507 -0.05007966542725507 -0.05007966542725507 -0.04806442434299252 -0.04806442434299252 -0.04806442434299252 0.61033932643261 
0.61033932643261 0.61033932643261 0.6086776875897976 0.6086776875897976 0.6086776875897976 -0.4942444722724726 -0.4942444722724726 -0.4942444722724726 -0.5016107338243834 
-0.5016107338243834 -0.5016107338243834 0.08170666825165075 0.08170666825165075 0.08170666825165075 0.0851896420069565 0.0851896420069565 0.0851896420069565 -0.830334069071372 
-0.830334069071372 -0.830334069071372 -0.8356947671520232 -0.8356947671520232 -0.8356947671520232 -0.07515144322322646 -0.07515144322322646 -0.07515144322322646 -0.07380033549348022 
-0.07380033549348022 -0.07380033549348022 0.8689041857454329 0.8689041857454329 0.8689041857454329 0.8691818539252041 0.8691818539252041 0.8691818539252041 -0.5561903810427558 
-0.5561903810427558 -0.5561903810427558 -0.5717211687270789 -0.5717211687270789 -0.5717211687270789 0.06002663877773884 0.06002663877773884 0.06002663877773884 0.05774093258235739 
0.05774093258235739 0.05774093258235739 -0.1695434461732432 -0.1695434461732432 -0.1695434461732432 -0.1652479787601784 -0.1652479787601784 -0.1652479787601784 -0.6081686686181608 
-0.6081686686181608 -0.6081686686181608 -0.6189002583003556 -0.6189002583003556 -0.6189002583003556 -0.03142061491110212 -0.03142061491110212 -0.03142061491110212 -0.04981467897141987 
-0.04981467897141987 -0.04981467897141987 0.8609980121014639 0.8609980121014639 0.8609980121014639 0.8614539618432731 0.8614539618432731 0.8614539618432731 -0.6181231328108132 
-0.6181231328108132 -0.6181231328108132 -0.6262221539541999 -0.6262221539541999 -0.6262221539541999 -0.7225611178986664 -0.7225611178986664 -0.7225611178986664 -0.7340206640808242 
-0.7340206640808242 -0.7340206640808242 0.3629131397311728 0.3629131397311728 0.3629131397311728 0.3709922267729382 0.3709922267729382 0.3709922267729382 0.2464149219317953 
0.2464149219317953 0.2464149219317953 0.239523288949557 0.239523288949557 0.239523288949557 0.05976629583391949 0.05976629583391949 0.05976629583391949 0.06495231569171758 
0.06495231569171758 0.06495231569171758 -0.4648502527102839 -0.4648502527102839 -0.4648502527102839 -0.4565867858142328 -0.4565867858142328 -0.4565867858142328 0.1968808547507432 
0.1968808547507432 0.1968808547507432 0.2126089658165325 0.2126089658165325 0.2126089658165325 -0.1530593847917427 -0.1530593847917427 -0.1530593847917427 -0.1495110987252983 
-0.1495110987252983 -0.1495110987252983 -0.3144076672884868 -0.3144076672884868 -0.3144076672884868 -0.302117648377852 -0.302117648377852 -0.302117648377852 0.2356402785003025 
0.2356402785003025 0.2356402785003025 0.2161940489833927 0.2161940489833927 0.2161940489833927 -0.1002226240266187 -0.1002226240266187 -0.1002226240266187 -0.08268803667183904 
-0.08268803667183904 -0.08268803667183904 -0.2687956575129375 -0.2687956575129375 -0.2687956575129375 -0.2737183836358513 -0.2737183836358513 -0.2737183836358513 0.3598321905406786 
0.3598321905406786 0.3598321905406786 0.3460613473422833 0.3460613473422833 0.3460613473422833 -0.6132874123029886 -0.6132874123029886 -0.6132874123029886 -0.619267584951866 
-0.619267584951866 -0.619267584951866 0.5777559254615123 0.5777559254615123 0.5777559254615123 0.5744178029410516 0.5744178029410516 0.5744178029410516 0.7121265367934171 
0.7121265367934171 0.7121265367934171 0.703085605484385 0.703085605484385 0.703085605484385 -0.7663938458797692 -0.7663938458797692 -0.7663938458797692 -0.7707022031698054 
-0.7707022031698054 -0.7707022031698054 0.616525179073059 0.616525179073059 0.616525179073059 0.6257650956716014 0.6257650956716014 0.6257650956716014 -0.1736180006774584 
-0.1736180006774584 -0.1736180006774584 -0.165282220022209 -0.165282220022209 -0.165282220022209 0.4739794723062952 0.4739794723062952 0.4739794723062952 0.4761696721377276 
0.4761696721377276 0.4761696721377276 0.7713017464333096 0.7713017464333096 0.7713017464333096 0.7741790011738889 0.7741790011738889 0.7741790011738889 -0.6131299619183184 
-0.6131299619183184 -0.6131299619183184 -0.6059355451502326 -0.6059355451502326 -0.6059355451502326 -0.2011066700696107 -0.2011066700696107 -0.2011066700696107 -0.2089657054088135 