Title = Triangle150
FileType = Solution
Variables = q
Zone T = Triangle150
ZoneType = FETriangle
Nodes = 212082
Elements = 70694
DataPacking = Block
StrandID = 10
SolutionTime = 0.9
-0.6311321395947169 -0.6311321395947169 -0.6311321395947169 -0.6357282465056855 -0.6357282465056855 -0.6357282465056855 -0.6201295013996653 -0.6201295013996653 -0.6201295013996653 0.799178261157612 
0.799178261157612 0.799178261157612 0.8059077951127236 0.8059077951127236 0.8059077951127236 0.8123131648924394 0.8123131648924394 0.8123131648924394 0.02078279831216774 
0.02078279831216774 0.02078279831216774 0.02782807230495866 0.02782807230495866 0.02782807230495866 0.03363846274677471 0.03363846274677471 0.03363846274677471 -0.1510651264811084 
-0.1510651264811084 -0.1510651264811084 -0.1406778529927429 -0.1406778529927429 -0.1406778529927429 -0.123440713870209 -0.123440713870209 -0.123440713870209 0.6301259820299083 
0.6301259820299083 0.6301259820299083 0.6189631850229302 0.6189631850229302 0.6189631850229302 0.6261834584093477 0.6261834584093477 0.6261834584093477 -0.1168266347231887 
-0.1168266347231887 -0.1168266347231887 -0.1285033377694785 -0.1285033377694785 -0.1285033377694785 -0.1360708497364056 -0.1360708497364056 -0.1360708497364056 -0.7057155195278586 
-0.7057155195278586 -0.7057155195278586 -0.7174233359589681 -0.7174233359589681 -0.7174233359589681 0.1375091373959091 0.1375091373959091 0.1375091373959091 0.142264507776348 
0.142264507776348 0.142264507776348 -0.7962806954261051 -0.7962806954261051 -0.7962806954261051 -0.8074642003513794 -0.8074642003513794 -0.8074642003513794 -0.909028811558553 
-0.909028811558553 -0.909028811558553 -0.9076413279249806 -0.9076413279249806 -0.9076413279249806 0.6011525890683467 0.6011525890683467 0.6011525890683467 0.6040019377855556 
0.6040019377855556 0.6040019377855556 0.3545096272097885 0.3545096272097885 0.3545096272097885 0.380078581348804 0.380078581348804 0.380078581348804 0.7549357959691553 
0.7549357959691553 0.7549357959691553 0.7472807209585286 0.7472807209585286 0.7472807209585286 0.1643649077123576 0.1643649077123576 0.1643649077123576 0.162199652887323 
0.162199652887323 0.162199652887323 -0.3785048665748503 -0.3785048665748503 -0.3785048665748503 -0.365386072010489 -0.365386072010489 -0.365386072010489 0.04480394701800204 
0.04480394701800204 0.04480394701800204 0.03877426437441119 0.03877426437441119 0.03877426437441119 -0.6385848322721893 -0.6385848322721893 -0.6385848322721893 -0.6435836365362388 
-0.6435836365362388 -0.6435836365362388 -0.2914957704054143 -0.2914957704054143 -0.2914957704054143 -0.2812901398912842 -0.2812901398912842 -0.2812901398912842 -0.6005785958663847 
-0.6005785958663847 -0.6005785958663847 -0.5935806039187557 -0.5935806039187557 -0.5935806039187557 -0.1797400088255687 -0.1797400088255687 -0.1797400088255687 -0.1836498491507541 
-0.1836498491507541 -0.1836498491507541 0.8760128330710935 0.8760128330710935 0.8760128330710935 0.8805726396597757 0.8805726396597757 0.8805726396597757 -0.8826954031121275 
-0.8826954031121275 -0.8826954031121275 -0.8754708601696208 -0.8754708601696208 -0.8754708601696208 -0.005489948319447075 -0.005489948319447075 -0.005489948319447075 -0.0112468684057789 
-0.0112468684057789 -0.0112468684057789 -0.4639187800616478 -0.4639187800616478 -0.4639187800616478 -0.4602347754707271 -0.4602347754707271 -0.4602347754707271 -0.3002678379779271 
-0.3002678379779271 -0.3002678379779271 -0.3052944753269959 -0.3052944753269959 -0.3052944753269959 -0.01278688115926725 -0.01278688115926725 -0.01278688115926725 -0.006588949843068051 
-0.006588949843068051 -0.006588949843068051 -0.6768437323494197 -0.6768437323494197 -0.6768437323494197 -0.7037377031165264 -0.7037377031165264 -0.7037377031165264 0.5402448341761761 
0.5402448341761761 0.5402448341761761 0.5448181124156642 0.5448181124156642 0.5448181124156642 0.6462251263767689 0.6462251263767689 0.6462251263767689 0.6358853717002304 
0.6358853717002304 0.6358853717002304 -0.449247642831805 -0.449247642831805 -0.449247642831805 -0.445936666261318 -0.445936666261318 -0.445936666261318 -0.1134109376158988 
-0.1134109376158988 -0.1134109376158988 -0.1302539491419145 -0.1302539491419145 -0.1302539491419145 0.09258388439299532 0.09258388439299532 0.09258388439299532 0.08200956043576965 
0.08200956043576965 0.08200956043576965 0.7200371324056478 0.7200371324056478 0.7200371324056478 0.7122386299857948 0.7122386299857948 0.7122386299857948 -0.4046226329327792 
-0.4046226329327792 -0.4046226329327792 -0.3948629846233652 -0.3948629846233652 -0.3948629846233652 -0.05518056705763916 -0.05518056705763916 -0.05518056705763916 -0.05277483492500876 
-0.05277483492500876 -0.05277483492500876 0.08392303474456005 0.08392303474456005 0.08392303474456005 0.07888084567730264 0.07888084567730264 0.07888084567730264 0.8845628327483577 
0.8845628327483577 0.8845628327483577 0.8829933231032783 0.8829933231032783 0.8829933231032783 0.2704773558180531 0.2704773558180531 0.2704773558180531 0.2642534082605157 
0.2642534082605157 0.2642534082605157 0.7621103442556626 0.7621103442556626 0.7621103442556626 0.776338624036225 0.776338624036225 0.776338624036225 -0.7250257172132814 
-0.7250257172132814 -0.7250257172132814 -0.7241822141447853 -0.7241822141447853 -0.7241822141447853 0.3444201862405732 0.3444201862405732 0.3444201862405732 0.3472766173007127 
0.3472766173007127 0.3472766173007127 0.2988007924002848 0.2988007924002848 0.2988007924002848 0.2991004345410274 0.2991004345410274 0.2991004345410274 0.1708678600356286 
0.1708678600356286 0.1708678600356286 0.1769945765062911 0.1769945765062911 0.1769945765062911 -0.6209487969389713 -0.6209487969389713 -0.6209487969389713 -0.2900528164118696 
-0.2900528164118696 -0.2900528164118696 -0.2785630354215881 -0.2785630354215881 -0.2785630354215881 -0.5882373922570356 -0.5882373922570356 -0.5882373922570356 -0.596288920097916 
-0.596288920097916 -0.596288920097916 0.7091224722383824 0.7091224722383824 0.7091224722383824 0.7143479015267468 0.7143479015267468 0.7143479015267468 0.06173970953996961 
0.06173970953996961 0.06173970953996961 0.05832846440825482 0.05832846440825482 0.05832846440825482 0.5407421171041998 0.5407421171041998 0.5407421171041998 0.5519207682473138 
0.5519207682473138 0.5519207682473138 -0.6343868256605173 -0.6343868256605173 -0.6343868256605173 0.7949396900094987 0.7949396900094987 0.7949396900094987 -0.02044409546667124 
-0.02044409546667124 -0.02044409546667124 -0.1307483346476331 -0.1307483346476331 -0.1307483346476331 0.7167619780547807 0.7167619780547807 0.7167619780547807 0.910667624009005 
0.910667624009005 0.910667624009005 -0.4071763399310389 -0.4071763399310389 -0.4071763399310389 -0.03830860694183483 -0.03830860694183483 -0.03830860694183483 -0.8263765691268016 
-0.8263765691268016 -0.8263765691268016 0.7235186939914673 0.7235186939914673 0.7235186939914673 -0.3112405518339679 -0.3112405518339679 -0.3112405518339679 0.05589727465052206 
0.05589727465052206 0.05589727465052206 0.08383457641234465 0.08383457641234465 0.08383457641234465 0.07133113228990721 0.07133113228990721 0.07133113228990721 0.07398801920787035 
0.07398801920787035 0.07398801920787035 -0.285666824356671 -0.285666824356671 -0.285666824356671 -0.2958847686692005 -0.2958847686692005 -0.2958847686692005 -0.2598122933404274 
-0.2598122933404274 -0.2598122933404274 -0.2529591609982779 -0.2529591609982779 -0.2529591609982779 0.1042692098740211 0.1042692098740211 0.1042692098740211 0.08994114895259737 
0.08994114895259737 0.08994114895259737 -0.8877319820824772 -0.8877319820824772 -0.8877319820824772 -0.8818761517171787 -0.8818761517171787 -0.8818761517171787 -0.1951753346697739 
-0.1951753346697739 -0.1951753346697739 -0.197368929621902 -0.197368929621902 -0.197368929621902 0.6253648343969029 0.6253648343969029 0.6253648343969029 0.6024469937699496 
0.6024469937699496 0.6024469937699496 0.1324593338267934 0.1324593338267934 0.1324593338267934 0.1525963469606835 0.1525963469606835 0.1525963469606835 -0.1981025337147574 
-0.1981025337147574 -0.1981025337147574 -0.2205222265441418 -0.2205222265441418 -0.2205222265441418 -0.5418248967168247 -0.5418248967168247 -0.5418248967168247 -0.5537038405229784 
-0.5537038405229784 -0.5537038405229784 -0.3758982312212975 -0.3758982312212975 -0.3758982312212975 -0.3410802999378254 -0.3410802999378254 -0.3410802999378254 -0.1166299212241016 
-0.1166299212241016 -0.1166299212241016 -0.09174118985000684 -0.09174118985000684 -0.09174118985000684 -0.03460832221943307 -0.03460832221943307 -0.03460832221943307 -0.053887215665717 
-0.053887215665717 -0.053887215665717 0.7752071927163677 0.7752071927163677 0.7752071927163677 0.7940174280458187 0.7940174280458187 0.7940174280458187 -0.282136319437858 
-0.282136319437858 -0.282136319437858 -0.2623768306775912 -0.2623768306775912 -0.2623768306775912 -0.03873006551506717 -0.03873006551506717 -0.03873006551506717 -0.05176001330181186 
-0.05176001330181186 -0.05176001330181186 -0.02117306666092222 -0.02117306666092222 -0.02117306666092222 -0.02396360518053996 -0.02396360518053996 -0.02396360518053996 0.1284137472060052 
0.1284137472060052 0.1284137472060052 0.1114643239962413 0.1114643239962413 0.1114643239962413 0.6270554661524265 0.6270554661524265 0.6270554661524265 0.6211245238585769 
0.6211245238585769 0.6211245238585769 0.201778821287285 0.201778821287285 0.201778821287285 0.1987602055367524 0.1987602055367524 0.1987602055367524 0.1111142910482731 
0.1111142910482731 0.1111142910482731 0.1053183112554974 0.1053183112554974 0.1053183112554974 0.3786464163476633 0.3786464163476633 0.3786464163476633 0.3543466383457305 
0.3543466383457305 0.3543466383457305 -0.5099073733826833 -0.5099073733826833 -0.5099073733826833 -0.4848406039279524 -0.4848406039279524 -0.4848406039279524 -0.8953899743453888 
-0.8953899743453888 -0.8953899743453888 -0.886527599512152 -0.886527599512152 -0.886527599512152 0.6131307444217204 0.6131307444217204 0.6131307444217204 0.6283895236049208 
0.6283895236049208 0.6283895236049208 -0.6097735308207521 -0.6097735308207521 -0.6097735308207521 -0.6355523870250842 -0.6355523870250842 -0.6355523870250842 -0.3079088787022703 
-0.3079088787022703 -0.3079088787022703 -0.3047329969082599 -0.3047329969082599 -0.3047329969082599 -0.56566761816584 -0.56566761816584 -0.56566761816584 -0.5461564190768938 
-0.5461564190768938 -0.5461564190768938 -0.1426617482070104 -0.1426617482070104 -0.1426617482070104 -0.1423324656332726 -0.1423324656332726 -0.1423324656332726 0.5086106662531555 
0.5086106662531555 0.5086106662531555 0.4900839705433538 0.4900839705433538 0.4900839705433538 -0.7012441166148694 -0.7012441166148694 -0.7012441166148694 -0.6798389869994043 
-0.6798389869994043 -0.6798389869994043 -0.8392887648916837 -0.8392887648916837 -0.8392887648916837 -0.8416711981471684 -0.8416711981471684 -0.8416711981471684 -0.01797622913465646 
-0.01797622913465646 -0.01797622913465646 -0.02406811051741369 -0.02406811051741369 -0.02406811051741369 -0.02920446940895671 -0.02920446940895671 -0.02920446940895671 -0.02741990144113259 
-0.02741990144113259 -0.02741990144113259 0.4957066880675955 0.4957066880675955 0.4957066880675955 0.4791485142336118 0.4791485142336118 0.4791485142336118 -0.07780028965985562 
-0.07780028965985562 -0.07780028965985562 -0.0885093957179727 -0.0885093957179727 -0.0885093957179727 -0.476243382453127 -0.476243382453127 -0.476243382453127 -0.484206454092085 
-0.484206454092085 -0.484206454092085 0.2186372656561795 0.2186372656561795 0.2186372656561795 0.223659372465341 0.223659372465341 0.223659372465341 -0.4629179134406712 
-0.4629179134406712 -0.4629179134406712 -0.4770209777369351 -0.4770209777369351 -0.4770209777369351 0.2190459424850851 0.2190459424850851 0.2190459424850851 0.2273118914683043 
0.2273118914683043 0.2273118914683043 -0.2529611377579545 -0.2529611377579545 -0.2529611377579545 -0.2378295137590506 -0.2378295137590506 -0.2378295137590506 0.888540802421518 
0.888540802421518 0.888540802421518 0.8812728613163461 0.8812728613163461 0.8812728613163461 0.3925707788771581 0.3925707788771581 0.3925707788771581 0.3771397842907074 
0.3771397842907074 0.3771397842907074 -0.1795886099674346 -0.1795886099674346 -0.1795886099674346 -0.2001599980029938 -0.2001599980029938 -0.2001599980029938 0.34599784672401 
0.34599784672401 0.34599784672401 0.3732311050543213 0.3732311050543213 0.3732311050543213 -0.6216310443037841 -0.6216310443037841 -0.6216310443037841 -0.613425806316946 
-0.613425806316946 -0.613425806316946 -0.3853636457564141 -0.3853636457564141 -0.3853636457564141 -0.3738084437801171 -0.3738084437801171 -0.3738084437801171 0.7804277706599472 
0.7804277706599472 0.7804277706599472 0.7695159020364126 0.7695159020364126 0.7695159020364126 -0.5236542787669903 -0.5236542787669903 -0.5236542787669903 -0.5185151175922473 
-0.5185151175922473 -0.5185151175922473 -0.6527568388495217 -0.6527568388495217 -0.6527568388495217 -0.656008739225761 -0.656008739225761 -0.656008739225761 -0.1520293746621916 
-0.1520293746621916 -0.1520293746621916 -0.1293905012066562 -0.1293905012066562 -0.1293905012066562 0.001102011067369036 0.001102011067369036 0.001102011067369036 -0.01541885671774915 
-0.01541885671774915 -0.01541885671774915 0.4011199784343005 0.4011199784343005 0.4011199784343005 0.4258458078580176 0.4258458078580176 0.4258458078580176 -0.5340517008650444 
-0.5340517008650444 -0.5340517008650444 -0.5394183209820215 -0.5394183209820215 -0.5394183209820215 0.8545899518558314 0.8545899518558314 0.8545899518558314 0.8521837588125734 
0.8521837588125734 0.8521837588125734 0.3898640186234574 0.3898640186234574 0.3898640186234574 0.4015300371516032 0.4015300371516032 0.4015300371516032 -0.5764711385120338 
-0.5764711385120338 -0.5764711385120338 -0.6021743368915118 -0.6021743368915118 -0.6021743368915118 -0.4179069570001406 -0.4179069570001406 -0.4179069570001406 -0.4350002576179197 
-0.4350002576179197 -0.4350002576179197 0.4565510764254712 0.4565510764254712 0.4565510764254712 0.4842180798894276 0.4842180798894276 0.4842180798894276 -0.6287012886224255 
-0.6287012886224255 -0.6287012886224255 -0.6495287359892584 -0.6495287359892584 -0.6495287359892584 -0.3728099263790035 -0.3728099263790035 -0.3728099263790035 -0.3179944481280534 
-0.3179944481280534 -0.3179944481280534 0.2649899038601633 0.2649899038601633 0.2649899038601633 0.2504199016664798 0.2504199016664798 0.2504199016664798 0.02220925761849967 
0.02220925761849967 0.02220925761849967 0.008112392541906032 0.008112392541906032 0.008112392541906032 0.5964123357048191 0.5964123357048191 0.5964123357048191 0.5727314007490578 
0.5727314007490578 0.5727314007490578 -0.6726219433867878 -0.6726219433867878 -0.6726219433867878 -0.6522808974306793 -0.6522808974306793 -0.6522808974306793 0.4004679590679071 
0.4004679590679071 0.4004679590679071 0.3969357284061455 0.3969357284061455 0.3969357284061455 -0.189279089634675 -0.189279089634675 -0.189279089634675 -0.1978768336995004 
-0.1978768336995004 -0.1978768336995004 -0.2025949614931273 -0.2025949614931273 -0.2025949614931273 -0.1696099567525595 -0.1696099567525595 -0.1696099567525595 -0.430935727035515 
-0.430935727035515 -0.430935727035515 -0.4415202511435579 -0.4415202511435579 -0.4415202511435579 -0.4521926674532244 -0.4521926674532244 -0.4521926674532244 -0.001714773860222349 
-0.001714773860222349 -0.001714773860222349 0.00265327865355165 0.00265327865355165 0.00265327865355165 -0.005132825264992938 -0.005132825264992938 -0.005132825264992938 -0.006317179709338981 
-0.006317179709338981 -0.006317179709338981 -0.2926827161622381 -0.2926827161622381 -0.2926827161622381 -0.284057474845598 -0.284057474845598 -0.284057474845598 -0.2726567493994716 
-0.2726567493994716 -0.2726567493994716 -0.4701854603101721 -0.4701854603101721 -0.4701854603101721 -0.4844545998692825 -0.4844545998692825 -0.4844545998692825 -0.4936950079110336 
-0.4936950079110336 -0.4936950079110336 -0.4509652492623981 -0.4509652492623981 -0.4509652492623981 -0.4352139639798216 -0.4352139639798216 -0.4352139639798216 -0.4228311566376167 
-0.4228311566376167 -0.4228311566376167 0.3443060613883833 0.3443060613883833 0.3443060613883833 0.3376767285519855 0.3376767285519855 0.3376767285519855 0.330744848801673 
0.330744848801673 0.330744848801673 0.4303476488154405 0.4303476488154405 0.4303476488154405 0.4418759148749914 0.4418759148749914 0.4418759148749914 0.4479680348964987 
0.4479680348964987 0.4479680348964987 -0.8969797032952105 -0.8969797032952105 -0.8969797032952105 -0.893560893686889 -0.893560893686889 -0.893560893686889 -0.8945698958257761 
-0.8945698958257761 -0.8945698958257761 0.4063738269152246 0.4063738269152246 0.4063738269152246 0.436422885217253 0.436422885217253 0.436422885217253 0.4369130006848193 
0.4369130006848193 0.4369130006848193 0.04526314665355738 0.04526314665355738 0.04526314665355738 0.04523417743076206 0.04523417743076206 0.04523417743076206 0.02896009947578479 
0.02896009947578479 0.02896009947578479 -0.02381213940689132 -0.02381213940689132 -0.02381213940689132 -0.04133038364098363 -0.04133038364098363 -0.04133038364098363 -0.03434711731772329 
-0.03434711731772329 -0.03434711731772329 -0.4467561164863501 -0.4467561164863501 -0.4467561164863501 -0.438614069989975 -0.438614069989975 -0.438614069989975 -0.2062094806953653 
-0.2062094806953653 -0.2062094806953653 -0.2240967956946038 -0.2240967956946038 -0.2240967956946038 -0.2266679446401932 -0.2266679446401932 -0.2266679446401932 0.6557972854396821 
0.6557972854396821 0.6557972854396821 0.6509818696174774 0.6509818696174774 0.6509818696174774 0.6545930876038824 0.6545930876038824 0.6545930876038824 0.1910821441496653 
0.1910821441496653 0.1910821441496653 0.1806326539127442 0.1806326539127442 0.1806326539127442 0.164966270086704 0.164966270086704 0.164966270086704 -0.9217484557463418 
-0.9217484557463418 -0.9217484557463418 -0.9197309850345797 -0.9197309850345797 -0.9197309850345797 -0.9181903399190214 -0.9181903399190214 -0.9181903399190214 0.08822702898349613 
0.08822702898349613 0.08822702898349613 0.09352766677247498 0.09352766677247498 0.09352766677247498 0.1004279308263386 0.1004279308263386 0.1004279308263386 -0.4703113376948099 
-0.4703113376948099 -0.4703113376948099 -0.464815771457361 -0.464815771457361 -0.464815771457361 -0.456859621161101 -0.456859621161101 -0.456859621161101 -0.4214085798668061 
-0.4214085798668061 -0.4214085798668061 -0.4364412158591503 -0.4364412158591503 -0.4364412158591503 0.2766578036331722 0.2766578036331722 0.2766578036331722 0.2898745876191952 
0.2898745876191952 0.2898745876191952 -0.6913475175926651 -0.6913475175926651 -0.6913475175926651 -0.6870159515050084 -0.6870159515050084 -0.6870159515050084 -0.04229275358998292 
-0.04229275358998292 -0.04229275358998292 -0.05383698867194109 -0.05383698867194109 -0.05383698867194109 -0.2907585022743299 -0.2907585022743299 -0.2907585022743299 -0.277628570455872 
-0.277628570455872 -0.277628570455872 -0.4654610776023905 -0.4654610776023905 -0.4654610776023905 -0.4664324944523901 -0.4664324944523901 -0.4664324944523901 -0.5069376323495394 
-0.5069376323495394 -0.5069376323495394 -0.4821510644693839 -0.4821510644693839 -0.4821510644693839 0.5001134355000296 0.5001134355000296 0.5001134355000296 0.5038310047732485 
0.5038310047732485 0.5038310047732485 0.8729749880588333 0.8729749880588333 0.8729749880588333 0.8634549430892695 0.8634549430892695 0.8634549430892695 -0.1025636779663209 
-0.1025636779663209 -0.1025636779663209 -0.09996411884753451 -0.09996411884753451 -0.09996411884753451 0.222513120458806 0.222513120458806 0.222513120458806 0.2230136647689835 
0.2230136647689835 0.2230136647689835 0.1813467854474603 0.1813467854474603 0.1813467854474603 0.1656926391685321 0.1656926391685321 0.1656926391685321 -0.03010083600826353 
-0.03010083600826353 -0.03010083600826353 -0.02856248467851179 -0.02856248467851179 -0.02856248467851179 -0.4302877989050802 -0.4302877989050802 -0.4302877989050802 -0.4136903305545752 
-0.4136903305545752 -0.4136903305545752 -0.5283610622549684 -0.5283610622549684 -0.5283610622549684 -0.5246369177048187 -0.5246369177048187 -0.5246369177048187 -0.8841774096707203 
-0.8841774096707203 -0.8841774096707203 -0.877488156214692 -0.877488156214692 -0.877488156214692 0.9010370332870821 0.9010370332870821 0.9010370332870821 0.897491770538328 
0.897491770538328 0.897491770538328 -0.3367336892383552 -0.3367336892383552 -0.3367336892383552 -0.3417851489202108 -0.3417851489202108 -0.3417851489202108 -0.6870940725026904 
-0.6870940725026904 -0.6870940725026904 -0.67809209436389 -0.67809209436389 -0.67809209436389 0.8457376775173265 0.8457376775173265 0.8457376775173265 0.845299409886343 
0.845299409886343 0.845299409886343 0.5740730126765067 0.5740730126765067 0.5740730126765067 0.5631482255973941 0.5631482255973941 0.5631482255973941 0.4514578208803341 
0.4514578208803341 0.4514578208803341 0.4509479265547885 0.4509479265547885 0.4509479265547885 0.002069793154368404 0.002069793154368404 0.002069793154368404 0.003947860321001144 
0.003947860321001144 0.003947860321001144 0.8971302191720582 0.8971302191720582 0.8971302191720582 0.8895424246551729 0.8895424246551729 0.8895424246551729 0.8679011515661613 
0.8679011515661613 0.8679011515661613 0.8778731987434365 0.8778731987434365 0.8778731987434365 0.0818113640002506 0.0818113640002506 0.0818113640002506 0.09039652940903638 
0.09039652940903638 0.09039652940903638 -0.1643410873188774 -0.1643410873188774 -0.1643410873188774 -0.1438822551377947 -0.1438822551377947 -0.1438822551377947 -0.5047286861895033 
-0.5047286861895033 -0.5047286861895033 -0.4981486081402767 -0.4981486081402767 -0.4981486081402767 -0.09744608092104347 -0.09744608092104347 -0.09744608092104347 -0.092567925115023 
-0.092567925115023 -0.092567925115023 -0.1284948513931232 -0.1284948513931232 -0.1284948513931232 -0.1220516698050579 -0.1220516698050579 -0.1220516698050579 0.2831060031754645 
0.2831060031754645 0.2831060031754645 0.2597320140304659 0.2597320140304659 0.2597320140304659 0.9008948652758106 0.9008948652758106 0.9008948652758106 0.8980747126758415 
0.8980747126758415 0.8980747126758415 -0.02493451263377152 -0.02493451263377152 -0.02493451263377152 -0.02341272953319957 -0.02341272953319957 -0.02341272953319957 -0.498170333171162 
-0.498170333171162 -0.498170333171162 -0.5139768974221821 -0.5139768974221821 -0.5139768974221821 0.02833136721311101 0.02833136721311101 0.02833136721311101 0.03242498980746279 
0.03242498980746279 0.03242498980746279 0.5915962595004223 0.5915962595004223 0.5915962595004223 0.5968985860034038 0.5968985860034038 0.5968985860034038 -0.09458496307024483 
-0.09458496307024483 -0.09458496307024483 -0.1006525779059995 -0.1006525779059995 -0.1006525779059995 0.6771342805749474 0.6771342805749474 0.6771342805749474 0.6981289316023209 
0.6981289316023209 0.6981289316023209 0.5316469385849369 0.5316469385849369 0.5316469385849369 0.524559364190043 0.524559364190043 0.524559364190043 -0.1730960204002553 
-0.1730960204002553 -0.1730960204002553 -0.1476091427373686 -0.1476091427373686 -0.1476091427373686 0.5323630593416536 0.5323630593416536 0.5323630593416536 0.5451394247831042 
0.5451394247831042 0.5451394247831042 -0.5499240856915393 -0.5499240856915393 -0.5499240856915393 -0.5474692657159519 -0.5474692657159519 -0.5474692657159519 -0.2310309580076061 
-0.2310309580076061 -0.2310309580076061 -0.2404283927472238 -0.2404283927472238 -0.2404283927472238 -0.3203118916646112 -0.3203118916646112 -0.3203118916646112 -0.3114016232401682 
-0.3114016232401682 -0.3114016232401682 0.4063445568021222 0.4063445568021222 0.4063445568021222 0.3967466056588264 0.3967466056588264 0.3967466056588264 0.8938752522376747 
0.8938752522376747 0.8938752522376747 0.8899346852028686 0.8899346852028686 0.8899346852028686 -0.1605501708771375 -0.1605501708771375 -0.1605501708771375 -0.1646996826002545 
-0.1646996826002545 -0.1646996826002545 0.3400103800392352 0.3400103800392352 0.3400103800392352 0.3305106256104316 0.3305106256104316 0.3305106256104316 0.4419778272041773 
0.4419778272041773 0.4419778272041773 0.431278980863436 0.431278980863436 0.431278980863436 -0.5218161171167728 -0.5218161171167728 -0.5218161171167728 -0.512334052380939 
-0.512334052380939 -0.512334052380939 -0.1174960654575692 -0.1174960654575692 -0.1174960654575692 -0.1047110723853443 -0.1047110723853443 -0.1047110723853443 0.07151716300317876 
0.07151716300317876 0.07151716300317876 0.08557492234405524 0.08557492234405524 0.08557492234405524 -0.001436208220545683 -0.001436208220545683 -0.001436208220545683 0.01886050630558206 
0.01886050630558206 0.01886050630558206 -0.03944419475925455 -0.03944419475925455 -0.03944419475925455 -0.04226564433385622 -0.04226564433385622 -0.04226564433385622 -0.04106255051635591 
-0.04106255051635591 -0.04106255051635591 -0.03854864425972895 -0.03854864425972895 -0.03854864425972895 0.8525638289393846 0.8525638289393846 0.8525638289393846 0.8498837386822196 
0.8498837386822196 0.8498837386822196 -0.1206542651701047 -0.1206542651701047 -0.1206542651701047 -0.1138230334887951 -0.1138230334887951 -0.1138230334887951 0.8594886733712586 
0.8594886733712586 0.8594886733712586 0.8564573299084546 0.8564573299084546 0.8564573299084546 0.6962675010488277 0.6962675010488277 0.6962675010488277 0.6937139942585248 
0.6937139942585248 0.6937139942585248 0.2185520035992946 0.2185520035992946 0.2185520035992946 0.2036581904447256 0.2036581904447256 0.2036581904447256 -0.1041050792929117 
-0.1041050792929117 -0.1041050792929117 -0.1094883733424388 -0.1094883733424388 -0.1094883733424388 -0.5468691216127513 -0.5468691216127513 -0.5468691216127513 -0.5568719026373415 
-0.5568719026373415 -0.5568719026373415 0.7083886742120958 0.7083886742120958 0.7083886742120958 0.7106569215452561 0.7106569215452561 0.7106569215452561 0.3996520375889788 
0.3996520375889788 0.3996520375889788 0.3854185500257959 0.3854185500257959 0.3854185500257959 0.1897372904929562 0.1897372904929562 0.1897372904929562 0.1834568012695163 
0.1834568012695163 0.1834568012695163 -0.517212686003012 -0.517212686003012 -0.517212686003012 -0.5329910449783297 -0.5329910449783297 -0.5329910449783297 -0.3308779054679869 
-0.3308779054679869 -0.3308779054679869 -0.3152540423983876 -0.3152540423983876 -0.3152540423983876 0.4061668077268838 0.4061668077268838 0.4061668077268838 0.3966952292853277 
0.3966952292853277 0.3966952292853277 0.1020580469646407 0.1020580469646407 0.1020580469646407 0.09693611759124302 0.09693611759124302 0.09693611759124302 0.08549393104438285 
0.08549393104438285 0.08549393104438285 0.07808732043008014 0.07808732043008014 0.07808732043008014 -0.6888855649544353 -0.6888855649544353 -0.6888855649544353 -0.6918964018432493 
-0.6918964018432493 -0.6918964018432493 0.06513379695178476 0.06513379695178476 0.06513379695178476 0.07322696991618244 0.07322696991618244 0.07322696991618244 -0.09328081821527115 
-0.09328081821527115 -0.09328081821527115 -0.1109095360747027 -0.1109095360747027 -0.1109095360747027 0.4212582359630945 0.4212582359630945 0.4212582359630945 0.4288952907018949 
0.4288952907018949 0.4288952907018949 0.1156924233699998 0.1156924233699998 0.1156924233699998 0.1284936972214367 0.1284936972214367 0.1284936972214367 -0.4091815459236206 
-0.4091815459236206 -0.4091815459236206 -0.4107998603104535 -0.4107998603104535 -0.4107998603104535 -0.526812790250234 -0.526812790250234 -0.526812790250234 -0.5073901885599159 
-0.5073901885599159 -0.5073901885599159 0.8330602938188656 0.8330602938188656 0.8330602938188656 0.8337481712593666 0.8337481712593666 0.8337481712593666 -0.3811762152037433 
-0.3811762152037433 -0.3811762152037433 -0.4063606509925162 -0.4063606509925162 -0.4063606509925162 -0.5809170959766019 -0.5809170959766019 -0.5809170959766019 -0.5714274855722896 
-0.5714274855722896 -0.5714274855722896 0.085719792486319 0.085719792486319 0.085719792486319 0.1102031276219161 0.1102031276219161 0.1102031276219161 -0.5220918744839895 
-0.5220918744839895 -0.5220918744839895 -0.5156086646461029 -0.5156086646461029 -0.5156086646461029 -0.06775177025645596 -0.06775177025645596 -0.06775177025645596 -0.06042945722907304 
-0.06042945722907304 -0.06042945722907304 0.3806092449720676 0.3806092449720676 0.3806092449720676 0.3870003535147574 0.3870003535147574 0.3870003535147574 0.9067686775349328 
0.9067686775349328 0.9067686775349328 0.911316548035999 0.911316548035999 0.911316548035999 -0.877014772992087 -0.877014772992087 -0.877014772992087 -0.874234354341503 
-0.874234354341503 -0.874234354341503 -0.08719195688344175 -0.08719195688344175 -0.08719195688344175 -0.08956359590409865 -0.08956359590409865 -0.08956359590409865 -0.6037169486630674 
-0.6037169486630674 -0.6037169486630674 -0.6127671636761499 -0.6127671636761499 -0.6127671636761499 0.131020322180696 0.131020322180696 0.131020322180696 0.1252942540294725 
0.1252942540294725 0.1252942540294725 -0.1781613879568272 -0.1781613879568272 -0.1781613879568272 -0.1638776202851901 -0.1638776202851901 -0.1638776202851901 0.3026205034557002 
0.3026205034557002 0.3026205034557002 0.3112386580672428 0.3112386580672428 0.3112386580672428 -0.398321570586006 -0.398321570586006 -0.398321570586006 -0.3717935794721423 
-0.3717935794721423 -0.3717935794721423 -0.03171251437278827 -0.03171251437278827 -0.03171251437278827 -0.02607931428083246 -0.02607931428083246 -0.02607931428083246 0.7818158723085786 
0.7818158723085786 0.7818158723085786 0.7887665579987955 0.7887665579987955 0.7887665579987955 -0.02550667798299694 -0.02550667798299694 -0.02550667798299694 -0.02145965673615426 
-0.02145965673615426 -0.02145965673615426 0.2494249609101868 0.2494249609101868 0.2494249609101868 0.234884030836862 0.234884030836862 0.234884030836862 0.07703474460619586 
0.07703474460619586 0.07703474460619586 0.08215446286128157 0.08215446286128157 0.08215446286128157 -0.9030129528086741 -0.9030129528086741 -0.9030129528086741 -0.9040487445092478 