Title = Triangle150
FileType = Solution
Variables = q
Zone T = Triangle150
ZoneType = FETriangle
Nodes = 212082
Elements = 70694
DataPacking = Block
StrandID = 14
SolutionTime = 1.3
-0.02795870591621374 -0.02795870591621374 -0.02795870591621374 -0.03070589680284426 -0.03070589680284426 -0.03070589680284426 -0.03200543064883302 -0.03200543064883302 -0.03200543064883302 -0.1528406468561415 
-0.1528406468561415 -0.1528406468561415 -0.1558606434435312 -0.1558606434435312 -0.1558606434435312 -0.1668562588032556 -0.1668562588032556 -0.1668562588032556 0.05951185820640666 
0.05951185820640666 0.05951185820640666 0.07811104357915108 0.07811104357915108 0.07811104357915108 0.09130263145786122 0.09130263145786122 0.09130263145786122 -0.3309654213768408 
-0.3309654213768408 -0.3309654213768408 -0.3411473234327119 -0.3411473234327119 -0.3411473234327119 -0.3544321949911359 -0.3544321949911359 -0.3544321949911359 0.3238949394453614 
0.3238949394453614 0.3238949394453614 0.3476919638246085 0.3476919638246085 0.3476919638246085 0.3426097207614136 0.3426097207614136 0.3426097207614136 0.6214771913487084 
0.6214771913487084 0.6214771913487084 0.6283209882561691 0.6283209882561691 0.6283209882561691 0.6376327846826739 0.6376327846826739 0.6376327846826739 0.5153163353971821 
0.5153163353971821 0.5153163353971821 0.4944962405870541 0.4944962405870541 0.4944962405870541 -0.8933900543685873 -0.8933900543685873 -0.8933900543685873 -0.8936087383007139 
-0.8936087383007139 -0.8936087383007139 -0.1701419063477844 -0.1701419063477844 -0.1701419063477844 -0.1454715594755494 -0.1454715594755494 -0.1454715594755494 0.06036433382355465 
0.06036433382355465 0.06036433382355465 0.05649634927497314 0.05649634927497314 0.05649634927497314 0.3889796628510998 0.3889796628510998 0.3889796628510998 0.3802882414848848 
0.3802882414848848 0.3802882414848848 -0.8794497621669161 -0.8794497621669161 -0.8794497621669161 -0.8727614985132189 -0.8727614985132189 -0.8727614985132189 -0.09645798420269211 
-0.09645798420269211 -0.09645798420269211 -0.09109674423729405 -0.09109674423729405 -0.09109674423729405 0.1240687111540357 0.1240687111540357 0.1240687111540357 0.1376541711016088 
0.1376541711016088 0.1376541711016088 0.8647313062108918 0.8647313062108918 0.8647313062108918 0.8683288703706352 0.8683288703706352 0.8683288703706352 0.4993300731540298 
0.4993300731540298 0.4993300731540298 0.4804945059439383 0.4804945059439383 0.4804945059439383 -0.375186565122955 -0.375186565122955 -0.375186565122955 -0.3662504775618173 
-0.3662504775618173 -0.3662504775618173 -0.4528341888898857 -0.4528341888898857 -0.4528341888898857 -0.4600004393025174 -0.4600004393025174 -0.4600004393025174 -0.04076670901377905 
-0.04076670901377905 -0.04076670901377905 -0.03968742479463227 -0.03968742479463227 -0.03968742479463227 -0.2892260674469015 -0.2892260674469015 -0.2892260674469015 -0.2902435078090513 
-0.2902435078090513 -0.2902435078090513 0.0313197942901149 0.0313197942901149 0.0313197942901149 0.02300222622783583 0.02300222622783583 0.02300222622783583 -0.005873576243920109 
-0.005873576243920109 -0.005873576243920109 -0.02527425231936226 -0.02527425231936226 -0.02527425231936226 0.2874654105092194 0.2874654105092194 0.2874654105092194 0.2702532906965085 
0.2702532906965085 0.2702532906965085 -0.5549486382505744 -0.5549486382505744 -0.5549486382505744 -0.5621758290184878 -0.5621758290184878 -0.5621758290184878 0.006783546319498121 
0.006783546319498121 0.006783546319498121 3.362872612363831e-05 3.362872612363831e-05 3.362872612363831e-05 0.3171978111705924 0.3171978111705924 0.3171978111705924 0.333873379329392 
0.333873379329392 0.333873379329392 0.7033216392091455 0.7033216392091455 0.7033216392091455 0.673753716828088 0.673753716828088 0.673753716828088 0.4206817907068864 
0.4206817907068864 0.4206817907068864 0.4260511451894441 0.4260511451894441 0.4260511451894441 -0.08811664808315448 -0.08811664808315448 -0.08811664808315448 -0.07829924849492115 
-0.07829924849492115 -0.07829924849492115 -0.4017597725313582 -0.4017597725313582 -0.4017597725313582 -0.4099387605507144 -0.4099387605507144 -0.4099387605507144 -0.6740021273534494 
-0.6740021273534494 -0.6740021273534494 -0.6772592854457009 -0.6772592854457009 -0.6772592854457009 -0.3523941726491366 -0.3523941726491366 -0.3523941726491366 -0.3451726902078333 
-0.3451726902078333 -0.3451726902078333 0.1026754534710488 0.1026754534710488 0.1026754534710488 0.1103981778423365 0.1103981778423365 0.1103981778423365 -0.5291408628082304 
-0.5291408628082304 -0.5291408628082304 -0.5394485588570654 -0.5394485588570654 -0.5394485588570654 -0.08577043594202569 -0.08577043594202569 -0.08577043594202569 -0.09512707921245869 
-0.09512707921245869 -0.09512707921245869 0.6139710464497836 0.6139710464497836 0.6139710464497836 0.6164254999057348 0.6164254999057348 0.6164254999057348 -0.4143913519141474 
-0.4143913519141474 -0.4143913519141474 -0.4141619797790611 -0.4141619797790611 -0.4141619797790611 0.6663198327224173 0.6663198327224173 0.6663198327224173 0.6735107904459336 
0.6735107904459336 0.6735107904459336 -0.6175147423794354 -0.6175147423794354 -0.6175147423794354 -0.6000135844683265 -0.6000135844683265 -0.6000135844683265 0.6660404203085073 
0.6660404203085073 0.6660404203085073 0.6649565483604056 0.6649565483604056 0.6649565483604056 0.6650055581563401 0.6650055581563401 0.6650055581563401 0.6617650226271472 
0.6617650226271472 0.6617650226271472 -0.8143321164164228 -0.8143321164164228 -0.8143321164164228 -0.8083605524946856 -0.8083605524946856 -0.8083605524946856 -0.8970791199006514 
-0.8970791199006514 -0.8970791199006514 -0.8972680700092102 -0.8972680700092102 -0.8972680700092102 -0.03476474565049762 -0.03476474565049762 -0.03476474565049762 -0.4802307944586351 
-0.4802307944586351 -0.4802307944586351 -0.481827695958962 -0.481827695958962 -0.481827695958962 0.5607072248247887 0.5607072248247887 0.5607072248247887 0.5673291521566743 
0.5673291521566743 0.5673291521566743 0.3090218198609207 0.3090218198609207 0.3090218198609207 0.3020596142788293 0.3020596142788293 0.3020596142788293 0.5328567037944527 
0.5328567037944527 0.5328567037944527 0.5285159547180454 0.5285159547180454 0.5285159547180454 0.03233400077999496 0.03233400077999496 0.03233400077999496 0.03144568870543495 
0.03144568870543495 0.03144568870543495 0.495790314867664 0.495790314867664 0.495790314867664 0.1543399790160624 0.1543399790160624 0.1543399790160624 -0.5584191346898817 
-0.5584191346898817 -0.5584191346898817 -0.05615437996346454 -0.05615437996346454 -0.05615437996346454 -0.6788899028946014 -0.6788899028946014 -0.6788899028946014 -0.06794959930802527 
-0.06794959930802527 -0.06794959930802527 0.8696526830115956 0.8696526830115956 0.8696526830115956 0.868032717087668 0.868032717087668 0.868032717087668 -0.1341601761721197 
-0.1341601761721197 -0.1341601761721197 0.1292013455902878 0.1292013455902878 0.1292013455902878 -0.5081801514180279 -0.5081801514180279 -0.5081801514180279 0.3902228423627461 
0.3902228423627461 0.3902228423627461 0.3734468419351201 0.3734468419351201 0.3734468419351201 -0.6208995319028174 -0.6208995319028174 -0.6208995319028174 -0.614614484430149 
-0.614614484430149 -0.614614484430149 0.02947338246321238 0.02947338246321238 0.02947338246321238 0.02336735206178112 0.02336735206178112 0.02336735206178112 -0.01402090289853155 
-0.01402090289853155 -0.01402090289853155 -0.003387550157992643 -0.003387550157992643 -0.003387550157992643 0.1292654742420212 0.1292654742420212 0.1292654742420212 0.1140128391020031 
0.1140128391020031 0.1140128391020031 0.004357816773864678 0.004357816773864678 0.004357816773864678 -0.00193975922350683 -0.00193975922350683 -0.00193975922350683 -0.1433732691749986 
-0.1433732691749986 -0.1433732691749986 -0.1148983325876206 -0.1148983325876206 -0.1148983325876206 0.003641647448139667 0.003641647448139667 0.003641647448139667 0.01202883320493786 
0.01202883320493786 0.01202883320493786 0.3068722127744713 0.3068722127744713 0.3068722127744713 0.3001074705630243 0.3001074705630243 0.3001074705630243 0.06284439131503637 
0.06284439131503637 0.06284439131503637 0.04590460988877485 0.04590460988877485 0.04590460988877485 0.6830017953640858 0.6830017953640858 0.6830017953640858 0.69457576856879 
0.69457576856879 0.69457576856879 -0.3434455482271615 -0.3434455482271615 -0.3434455482271615 -0.3451394843150971 -0.3451394843150971 -0.3451394843150971 0.5993463164836323 
0.5993463164836323 0.5993463164836323 0.5806952501564415 0.5806952501564415 0.5806952501564415 0.1278452382439161 0.1278452382439161 0.1278452382439161 0.09260966990351321 
0.09260966990351321 0.09260966990351321 0.1047959115412013 0.1047959115412013 0.1047959115412013 0.07947360297301356 0.07947360297301356 0.07947360297301356 0.8901235363595856 
0.8901235363595856 0.8901235363595856 0.8944242005161042 0.8944242005161042 0.8944242005161042 0.3500287970380265 0.3500287970380265 0.3500287970380265 0.3767559039953104 
0.3767559039953104 0.3767559039953104 -0.5962302474781125 -0.5962302474781125 -0.5962302474781125 -0.6079392987416566 -0.6079392987416566 -0.6079392987416566 -0.1173073597358197 
-0.1173073597358197 -0.1173073597358197 -0.1349024727081452 -0.1349024727081452 -0.1349024727081452 -0.2859918104745536 -0.2859918104745536 -0.2859918104745536 -0.2756202499078411 
-0.2756202499078411 -0.2756202499078411 0.01830981055197083 0.01830981055197083 0.01830981055197083 -0.01010542111144697 -0.01010542111144697 -0.01010542111144697 0.3753193883915398 
0.3753193883915398 0.3753193883915398 0.3854796732949474 0.3854796732949474 0.3854796732949474 0.04754695991315325 0.04754695991315325 0.04754695991315325 0.0502840265227678 
0.0502840265227678 0.0502840265227678 -0.04641697258341611 -0.04641697258341611 -0.04641697258341611 -0.06075914691607232 -0.06075914691607232 -0.06075914691607232 0.3340522923152008 
0.3340522923152008 0.3340522923152008 0.3634535867186928 0.3634535867186928 0.3634535867186928 0.4155698397649417 0.4155698397649417 0.4155698397649417 0.4005254437165897 
0.4005254437165897 0.4005254437165897 -0.01243573030009966 -0.01243573030009966 -0.01243573030009966 -0.004437497607499648 -0.004437497607499648 -0.004437497607499648 0.02279447859322121 
0.02279447859322121 0.02279447859322121 0.02316057246450336 0.02316057246450336 0.02316057246450336 -0.03728596908387759 -0.03728596908387759 -0.03728596908387759 -0.0395435244507149 
-0.0395435244507149 -0.0395435244507149 -0.3469157422608201 -0.3469157422608201 -0.3469157422608201 -0.3435330330297633 -0.3435330330297633 -0.3435330330297633 0.2607417861736327 
0.2607417861736327 0.2607417861736327 0.2559063626402311 0.2559063626402311 0.2559063626402311 -0.1582351101486388 -0.1582351101486388 -0.1582351101486388 -0.16069801657343 
-0.16069801657343 -0.16069801657343 0.1243950837420941 0.1243950837420941 0.1243950837420941 0.09866789395356919 0.09866789395356919 0.09866789395356919 -0.6349787327134113 
-0.6349787327134113 -0.6349787327134113 -0.6224729057338091 -0.6224729057338091 -0.6224729057338091 -0.2755288841743551 -0.2755288841743551 -0.2755288841743551 -0.2472353807945132 
-0.2472353807945132 -0.2472353807945132 0.05066824357468178 0.05066824357468178 0.05066824357468178 0.05855711517364354 0.05855711517364354 0.05855711517364354 0.8662499342790571 
0.8662499342790571 0.8662499342790571 0.8649441340671729 0.8649441340671729 0.8649441340671729 0.4226372564629922 0.4226372564629922 0.4226372564629922 0.3866758138464943 
0.3866758138464943 0.3866758138464943 0.2706023345665073 0.2706023345665073 0.2706023345665073 0.2643460860040776 0.2643460860040776 0.2643460860040776 0.2088275959990539 
0.2088275959990539 0.2088275959990539 0.2020915429454829 0.2020915429454829 0.2020915429454829 0.1233763128509943 0.1233763128509943 0.1233763128509943 0.149606489802748 
0.149606489802748 0.149606489802748 -0.2343101961837048 -0.2343101961837048 -0.2343101961837048 -0.2445932759810861 -0.2445932759810861 -0.2445932759810861 -0.1323127439741013 
-0.1323127439741013 -0.1323127439741013 -0.1050110713048721 -0.1050110713048721 -0.1050110713048721 0.04717469387627311 0.04717469387627311 0.04717469387627311 0.04333273943984865 
0.04333273943984865 0.04333273943984865 -0.3090339617337978 -0.3090339617337978 -0.3090339617337978 -0.282658376656272 -0.282658376656272 -0.282658376656272 -0.3828109073474102 
-0.3828109073474102 -0.3828109073474102 -0.3965866200754249 -0.3965866200754249 -0.3965866200754249 0.7255025925525831 0.7255025925525831 0.7255025925525831 0.718535848422393 
0.718535848422393 0.718535848422393 0.3271335083026259 0.3271335083026259 0.3271335083026259 0.3002261753237877 0.3002261753237877 0.3002261753237877 0.0626609941339229 
0.0626609941339229 0.0626609941339229 0.0899352580526713 0.0899352580526713 0.0899352580526713 0.5680472249321136 0.5680472249321136 0.5680472249321136 0.5960610074551346 
0.5960610074551346 0.5960610074551346 -0.377141938973423 -0.377141938973423 -0.377141938973423 -0.3710751425206128 -0.3710751425206128 -0.3710751425206128 0.8805120267149211 
0.8805120267149211 0.8805120267149211 0.875216449609412 0.875216449609412 0.875216449609412 -0.488735281188545 -0.488735281188545 -0.488735281188545 -0.46759072298754 
-0.46759072298754 -0.46759072298754 -0.6691411360942549 -0.6691411360942549 -0.6691411360942549 -0.6431552495729764 -0.6431552495729764 -0.6431552495729764 0.7757298903064248 
0.7757298903064248 0.7757298903064248 0.7832029167368812 0.7832029167368812 0.7832029167368812 -0.3527178130118514 -0.3527178130118514 -0.3527178130118514 -0.3371737390192842 
-0.3371737390192842 -0.3371737390192842 0.2468376732028739 0.2468376732028739 0.2468376732028739 0.2281136439435728 0.2281136439435728 0.2281136439435728 0.007479233337273732 
0.007479233337273732 0.007479233337273732 0.02306978116551545 0.02306978116551545 0.02306978116551545 -0.3432803750780705 -0.3432803750780705 -0.3432803750780705 -0.3524313427068793 
-0.3524313427068793 -0.3524313427068793 0.04655074993995365 0.04655074993995365 0.04655074993995365 0.04177741036304232 0.04177741036304232 0.04177741036304232 0.5641233725171003 
0.5641233725171003 0.5641233725171003 0.5613475846756848 0.5613475846756848 0.5613475846756848 -0.3301114942556571 -0.3301114942556571 -0.3301114942556571 -0.3196358353917057 
-0.3196358353917057 -0.3196358353917057 0.1235313961991222 0.1235313961991222 0.1235313961991222 0.1365503761277586 0.1365503761277586 0.1365503761277586 0.2801467650174864 
0.2801467650174864 0.2801467650174864 0.2778455563851365 0.2778455563851365 0.2778455563851365 0.3496042060662099 0.3496042060662099 0.3496042060662099 0.3637212392600817 
0.3637212392600817 0.3637212392600817 0.6959574397477999 0.6959574397477999 0.6959574397477999 0.7091923509634573 0.7091923509634573 0.7091923509634573 0.5898724324710123 
0.5898724324710123 0.5898724324710123 0.6009960503112933 0.6009960503112933 0.6009960503112933 -0.2999219798564508 -0.2999219798564508 -0.2999219798564508 -0.2901884222906419 
-0.2901884222906419 -0.2901884222906419 -0.2830691151844677 -0.2830691151844677 -0.2830691151844677 -0.3217035659960892 -0.3217035659960892 -0.3217035659960892 0.4852093115319036 
0.4852093115319036 0.4852093115319036 0.4931799435651458 0.4931799435651458 0.4931799435651458 0.4713019870736426 0.4713019870736426 0.4713019870736426 -0.5397609267617608 
-0.5397609267617608 -0.5397609267617608 -0.53560376156975 -0.53560376156975 -0.53560376156975 -0.5247785207793745 -0.5247785207793745 -0.5247785207793745 -0.5188382266384084 
-0.5188382266384084 -0.5188382266384084 -0.01861259775768754 -0.01861259775768754 -0.01861259775768754 -0.01809904229210826 -0.01809904229210826 -0.01809904229210826 -0.005367235153347803 
-0.005367235153347803 -0.005367235153347803 -0.06500694174318075 -0.06500694174318075 -0.06500694174318075 -0.05824942413492585 -0.05824942413492585 -0.05824942413492585 -0.05495010586848291 
-0.05495010586848291 -0.05495010586848291 -0.0803022333593893 -0.0803022333593893 -0.0803022333593893 -0.0881256021680252 -0.0881256021680252 -0.0881256021680252 -0.09527484877605998 
-0.09527484877605998 -0.09527484877605998 0.6650351469215388 0.6650351469215388 0.6650351469215388 0.6695539206789275 0.6695539206789275 0.6695539206789275 0.6741321673762146 
0.6741321673762146 0.6741321673762146 -0.03976797234841736 -0.03976797234841736 -0.03976797234841736 -0.05164418256811117 -0.05164418256811117 -0.05164418256811117 -0.04241814410551321 
-0.04241814410551321 -0.04241814410551321 0.03109525791169342 0.03109525791169342 0.03109525791169342 0.01845688612611953 0.01845688612611953 0.01845688612611953 0.01757595250392674 
0.01757595250392674 0.01757595250392674 0.1652924632433604 0.1652924632433604 0.1652924632433604 0.1768823600156128 0.1768823600156128 0.1768823600156128 0.1833432054162762 
0.1833432054162762 0.1833432054162762 0.1460284539527336 0.1460284539527336 0.1460284539527336 0.1380386183615966 0.1380386183615966 0.1380386183615966 0.1323996469844538 
0.1323996469844538 0.1323996469844538 -0.04379457251152148 -0.04379457251152148 -0.04379457251152148 -0.04949010388293144 -0.04949010388293144 -0.04949010388293144 -0.06105079698630222 
-0.06105079698630222 -0.06105079698630222 0.4586553182048055 0.4586553182048055 0.4586553182048055 0.4527633063490678 0.4527633063490678 0.4527633063490678 0.02918323701611886 
0.02918323701611886 0.02918323701611886 0.01318111419423643 0.01318111419423643 0.01318111419423643 0.003962299624480284 0.003962299624480284 0.003962299624480284 0.3645287842245131 
0.3645287842245131 0.3645287842245131 0.3712989041381769 0.3712989041381769 0.3712989041381769 0.3701860891140862 0.3701860891140862 0.3701860891140862 -0.8548937813517586 
-0.8548937813517586 -0.8548937813517586 -0.8573903633203437 -0.8573903633203437 -0.8573903633203437 -0.8535964818244351 -0.8535964818244351 -0.8535964818244351 0.2269892199445764 
0.2269892199445764 0.2269892199445764 0.2249552188934913 0.2249552188934913 0.2249552188934913 0.2457103846804848 0.2457103846804848 0.2457103846804848 0.7888692530761428 
0.7888692530761428 0.7888692530761428 0.7840125074847912 0.7840125074847912 0.7840125074847912 0.7775259621758377 0.7775259621758377 0.7775259621758377 -0.03575008772279469 
-0.03575008772279469 -0.03575008772279469 -0.03530575545025421 -0.03530575545025421 -0.03530575545025421 -0.03362204493617151 -0.03362204493617151 -0.03362204493617151 0.4505751591969536 
0.4505751591969536 0.4505751591969536 0.443774302435211 0.443774302435211 0.443774302435211 0.2570391909800963 0.2570391909800963 0.2570391909800963 0.2542409960921934 
0.2542409960921934 0.2542409960921934 0.6704552814061349 0.6704552814061349 0.6704552814061349 0.6694370047841502 0.6694370047841502 0.6694370047841502 0.02308854477138594 
0.02308854477138594 0.02308854477138594 0.0250429111420595 0.0250429111420595 0.0250429111420595 -0.05100568047651245 -0.05100568047651245 -0.05100568047651245 -0.04396355274996256 
-0.04396355274996256 -0.04396355274996256 0.8123099622376355 0.8123099622376355 0.8123099622376355 0.8072976934368183 0.8072976934368183 0.8072976934368183 -0.04868378431778907 
-0.04868378431778907 -0.04868378431778907 -0.06214734308694185 -0.06214734308694185 -0.06214734308694185 0.3864335921880141 0.3864335921880141 0.3864335921880141 0.3768397473709829 
0.3768397473709829 0.3768397473709829 -0.403716845554851 -0.403716845554851 -0.403716845554851 -0.427165243307982 -0.427165243307982 -0.427165243307982 -0.144350275638763 
-0.144350275638763 -0.144350275638763 -0.1548735028104369 -0.1548735028104369 -0.1548735028104369 -0.2585030058745041 -0.2585030058745041 -0.2585030058745041 -0.2811230341319135 
-0.2811230341319135 -0.2811230341319135 0.3087407373157376 0.3087407373157376 0.3087407373157376 0.3260874365091656 0.3260874365091656 0.3260874365091656 -0.6199461662301953 
-0.6199461662301953 -0.6199461662301953 -0.6138714784454377 -0.6138714784454377 -0.6138714784454377 -0.04917429656412449 -0.04917429656412449 -0.04917429656412449 -0.07226675475933889 
-0.07226675475933889 -0.07226675475933889 -0.03272574084080217 -0.03272574084080217 -0.03272574084080217 -0.03319685827813141 -0.03319685827813141 -0.03319685827813141 0.321373345358625 
0.321373345358625 0.321373345358625 0.3346286840934727 0.3346286840934727 0.3346286840934727 -0.07507835147912112 -0.07507835147912112 -0.07507835147912112 -0.07987974362405076 
-0.07987974362405076 -0.07987974362405076 -0.372135735840798 -0.372135735840798 -0.372135735840798 -0.3490426054526632 -0.3490426054526632 -0.3490426054526632 -0.03978751276461308 
-0.03978751276461308 -0.03978751276461308 -0.04505583872015287 -0.04505583872015287 -0.04505583872015287 0.05840389877171517 0.05840389877171517 0.05840389877171517 0.05338027361826729 
0.05338027361826729 0.05338027361826729 0.01886114200958595 0.01886114200958595 0.01886114200958595 0.0224573345212719 0.0224573345212719 0.0224573345212719 -0.6787464784092424 
-0.6787464784092424 -0.6787464784092424 -0.6674969493392893 -0.6674969493392893 -0.6674969493392893 -0.4926203771214406 -0.4926203771214406 -0.4926203771214406 -0.5034775587006051 
-0.5034775587006051 -0.5034775587006051 -0.02632907233895907 -0.02632907233895907 -0.02632907233895907 -0.005558729065496619 -0.005558729065496619 -0.005558729065496619 -0.07807642559841656 
-0.07807642559841656 -0.07807642559841656 -0.08484790156927852 -0.08484790156927852 -0.08484790156927852 -0.4835943446559406 -0.4835943446559406 -0.4835943446559406 -0.4982274553298749 
-0.4982274553298749 -0.4982274553298749 0.8775526885177666 0.8775526885177666 0.8775526885177666 0.8728499690491726 0.8728499690491726 0.8728499690491726 -0.524920762858559 
-0.524920762858559 -0.524920762858559 -0.5301534384208467 -0.5301534384208467 -0.5301534384208467 -0.3469007217854619 -0.3469007217854619 -0.3469007217854619 -0.3589767421897601 
-0.3589767421897601 -0.3589767421897601 0.4478856010395199 0.4478856010395199 0.4478856010395199 0.436544710703098 0.436544710703098 0.436544710703098 -0.3729280564785492 
-0.3729280564785492 -0.3729280564785492 -0.3856790387981651 -0.3856790387981651 -0.3856790387981651 -0.1348863714575355 -0.1348863714575355 -0.1348863714575355 -0.1357715149338359 
-0.1357715149338359 -0.1357715149338359 -0.5750030764906394 -0.5750030764906394 -0.5750030764906394 -0.5711800838496256 -0.5711800838496256 -0.5711800838496256 0.4350472923368641 
0.4350472923368641 0.4350472923368641 0.4070099837146088 0.4070099837146088 0.4070099837146088 0.4460957619878562 0.4460957619878562 0.4460957619878562 0.453644885382136 
0.453644885382136 0.453644885382136 -0.6927657465275714 -0.6927657465275714 -0.6927657465275714 -0.6980452575231425 -0.6980452575231425 -0.6980452575231425 0.8675557257259996 
0.8675557257259996 0.8675557257259996 0.8649117728417346 0.8649117728417346 0.8649117728417346 -0.4708916516044559 -0.4708916516044559 -0.4708916516044559 -0.4709068242175561 
-0.4709068242175561 -0.4709068242175561 0.4872992464568505 0.4872992464568505 0.4872992464568505 0.4882575860493561 0.4882575860493561 0.4882575860493561 -0.2099950561264149 
-0.2099950561264149 -0.2099950561264149 -0.2136158544427404 -0.2136158544427404 -0.2136158544427404 0.4998499714612255 0.4998499714612255 0.4998499714612255 0.4879250376179031 
0.4879250376179031 0.4879250376179031 0.5629141933851276 0.5629141933851276 0.5629141933851276 0.5760961302210321 0.5760961302210321 0.5760961302210321 -0.2548089175199937 
-0.2548089175199937 -0.2548089175199937 -0.2462581928254086 -0.2462581928254086 -0.2462581928254086 0.8804073892121049 0.8804073892121049 0.8804073892121049 0.884437679620262 
0.884437679620262 0.884437679620262 0.07128506960227368 0.07128506960227368 0.07128506960227368 0.06942730389679902 0.06942730389679902 0.06942730389679902 -0.113011015029474 
-0.113011015029474 -0.113011015029474 -0.1084490546820041 -0.1084490546820041 -0.1084490546820041 0.8564103270399805 0.8564103270399805 0.8564103270399805 0.8598483418147539 
0.8598483418147539 0.8598483418147539 0.1031479921040944 0.1031479921040944 0.1031479921040944 0.09816276627037364 0.09816276627037364 0.09816276627037364 -0.7110936225374653 
-0.7110936225374653 -0.7110936225374653 -0.6973589881759127 -0.6973589881759127 -0.6973589881759127 0.3309257879279208 0.3309257879279208 0.3309257879279208 0.3248309451003618 
0.3248309451003618 0.3248309451003618 0.5484184525570125 0.5484184525570125 0.5484184525570125 0.5524147488037896 0.5524147488037896 0.5524147488037896 0.2352298822072487 
0.2352298822072487 0.2352298822072487 0.2421691107305555 0.2421691107305555 0.2421691107305555 -0.4678659523487381 -0.4678659523487381 -0.4678659523487381 -0.488949021049733 
-0.488949021049733 -0.488949021049733 -0.7227716883383359 -0.7227716883383359 -0.7227716883383359 -0.7161116731832041 -0.7161116731832041 -0.7161116731832041 0.2786134854100634 
0.2786134854100634 0.2786134854100634 0.2824010734880775 0.2824010734880775 0.2824010734880775 0.08674807981985386 0.08674807981985386 0.08674807981985386 0.09266171217293734 
0.09266171217293734 0.09266171217293734 -0.3664386996887764 -0.3664386996887764 -0.3664386996887764 -0.3758985245998872 -0.3758985245998872 -0.3758985245998872 0.07392264843393882 
0.07392264843393882 0.07392264843393882 0.08000183925044368 0.08000183925044368 0.08000183925044368 0.2785661628422803 0.2785661628422803 0.2785661628422803 0.2845597498460281 
0.2845597498460281 0.2845597498460281 0.1796856744511462 0.1796856744511462 0.1796856744511462 0.1716378658497127 0.1716378658497127 0.1716378658497127 0.3496430291265312 
0.3496430291265312 0.3496430291265312 0.3599522195715094 0.3599522195715094 0.3599522195715094 -0.009734900211409044 -0.009734900211409044 -0.009734900211409044 -0.003078788199729867 
-0.003078788199729867 -0.003078788199729867 -0.6681074104151389 -0.6681074104151389 -0.6681074104151389 -0.6706521003539541 -0.6706521003539541 -0.6706521003539541 0.05671998619733531 
0.05671998619733531 0.05671998619733531 0.06001187216421647 0.06001187216421647 0.06001187216421647 -0.2086836872854373 -0.2086836872854373 -0.2086836872854373 -0.1970845569629005 
-0.1970845569629005 -0.1970845569629005 0.7660489761170934 0.7660489761170934 0.7660489761170934 0.7530441068747865 0.7530441068747865 0.7530441068747865 0.01135297260483651 
0.01135297260483651 0.01135297260483651 0.01917146018274177 0.01917146018274177 0.01917146018274177 0.04794165214748933 0.04794165214748933 0.04794165214748933 0.06073755978328875 
0.06073755978328875 0.06073755978328875 -0.1883633203665987 -0.1883633203665987 -0.1883633203665987 -0.1956767522740407 -0.1956767522740407 -0.1956767522740407 0.6941812546436239 
0.6941812546436239 0.6941812546436239 0.6835803746912541 0.6835803746912541 0.6835803746912541 0.6540807400110219 0.6540807400110219 0.6540807400110219 0.6568491572055402 
0.6568491572055402 0.6568491572055402 0.4432173782813754 0.4432173782813754 0.4432173782813754 0.4333227833046503 0.4333227833046503 0.4333227833046503 -0.3103945180208693 
-0.3103945180208693 -0.3103945180208693 -0.3014224510590646 -0.3014224510590646 -0.3014224510590646 0.6038604531020921 0.6038604531020921 0.6038604531020921 0.5978801658881019 
0.5978801658881019 0.5978801658881019 -0.1416461824119148 -0.1416461824119148 -0.1416461824119148 -0.1318637806231535 -0.1318637806231535 -0.1318637806231535 -0.2944979301435957 
-0.2944979301435957 -0.2944979301435957 -0.2860293237864959 -0.2860293237864959 -0.2860293237864959 -0.1106971771735366 -0.1106971771735366 -0.1106971771735366 -0.1105584361144763 
-0.1105584361144763 -0.1105584361144763 0.07654904369732163 0.07654904369732163 0.07654904369732163 0.06907893018786695 0.06907893018786695 0.06907893018786695 0.596007662127773 
0.596007662127773 0.596007662127773 0.5825813202095088 0.5825813202095088 0.5825813202095088 0.1924102760757192 0.1924102760757192 0.1924102760757192 0.1829551278026049 
0.1829551278026049 0.1829551278026049 -0.4403449669149343 -0.4403449669149343 -0.4403449669149343 -0.4380294984559123 -0.4380294984559123 -0.4380294984559123 -0.4775070084439219 
-0.4775070084439219 -0.4775070084439219 -0.4790955564441875 -0.4790955564441875 -0.4790955564441875 0.5821239192830924 0.5821239192830924 0.5821239192830924 0.5729295098728396 
0.5729295098728396 0.5729295098728396 -0.2342854212127562 -0.2342854212127562 -0.2342854212127562 -0.2036724869765153 -0.2036724869765153 -0.2036724869765153 -0.1566632968687898 
-0.1566632968687898 -0.1566632968687898 -0.1751604835740754 -0.1751604835740754 -0.1751604835740754 -0.01087464037318033 -0.01087464037318033 -0.01087464037318033 -0.00926957394618097 
-0.00926957394618097 -0.00926957394618097 0.8721958665637279 0.8721958665637279 0.8721958665637279 0.8707866116318463 0.8707866116318463 0.8707866116318463 -0.1270381471649041 
-0.1270381471649041 -0.1270381471649041 -0.1371628484008426 -0.1371628484008426 -0.1371628484008426 0.6225491441403863 0.6225491441403863 0.6225491441403863 0.6202367111832865 
0.6202367111832865 0.6202367111832865 0.09822519795169213 0.09822519795169213 0.09822519795169213 0.1075739856037149 0.1075739856037149 0.1075739856037149 0.2107552720563103 
0.2107552720563103 0.2107552720563103 0.2219218831325228 0.2219218831325228 0.2219218831325228 -0.1252520087996301 -0.1252520087996301 -0.1252520087996301 -0.1260355845317838 
-0.1260355845317838 -0.1260355845317838 0.1882647439190496 0.1882647439190496 0.1882647439190496 0.1739419697637921 0.1739419697637921 0.1739419697637921 -0.1100506637723678 
-0.1100506637723678 -0.1100506637723678 -0.1194837310659925 -0.1194837310659925 -0.1194837310659925 -0.5224077275615966 -0.5224077275615966 -0.5224077275615966 -0.5325180172425471 
-0.5325180172425471 -0.5325180172425471 0.1206171145137873 0.1206171145137873 0.1206171145137873 0.1115605305401651 0.1115605305401651 0.1115605305401651 -0.09049585322902787 
-0.09049585322902787 -0.09049585322902787 -0.1028421670778444 -0.1028421670778444 -0.1028421670778444 0.03725692852816362 0.03725692852816362 0.03725692852816362 0.04147703054711945 