Title = Triangle150
FileType = Solution
Variables = q
Zone T = Triangle150
ZoneType = FETriangle
Nodes = 212082
Elements = 70694
DataPacking = Block
StrandID = 2
SolutionTime = 0.1
0.548684217563421 0.548684217563421 0.548684217563421 0.530381012038419 0.530381012038419 0.530381012038419 0.5316268510622815 0.5316268510622815 0.5316268510622815 -0.6569031732280077 
-0.6569031732280077 -0.6569031732280077 -0.6465487481627821 -0.6465487481627821 -0.6465487481627821 -0.6385505371998741 -0.6385505371998741 -0.6385505371998741 0.4245849827356576 
0.4245849827356576 0.4245849827356576 0.3969658430065353 0.3969658430065353 0.3969658430065353 0.377961918187034 0.377961918187034 0.377961918187034 0.983507377617483 
0.983507377617483 0.983507377617483 0.9817042888240933 0.9817042888240933 0.9817042888240933 0.9777460180267951 0.9777460180267951 0.9777460180267951 0.05202811863320765 
0.05202811863320765 0.05202811863320765 0.04383242571558296 0.04383242571558296 0.04383242571558296 0.04220990816026148 0.04220990816026148 0.04220990816026148 -0.8392460321719266 
-0.8392460321719266 -0.8392460321719266 -0.832136381438199 -0.832136381438199 -0.832136381438199 -0.8237293570674964 -0.8237293570674964 -0.8237293570674964 -0.3042845543339514 
-0.3042845543339514 -0.3042845543339514 -0.2920586023251427 -0.2920586023251427 -0.2920586023251427 0.2605470982710667 0.2605470982710667 0.2605470982710667 0.2718122190947032 
0.2718122190947032 0.2718122190947032 0.0436696729898144 0.0436696729898144 0.0436696729898144 0.0426389090740512 0.0426389090740512 0.0426389090740512 0.2093306778379101 
0.2093306778379101 0.2093306778379101 0.1990422122537328 0.1990422122537328 0.1990422122537328 -0.02851338417874502 -0.02851338417874502 -0.02851338417874502 -0.03185935229307305 
-0.03185935229307305 -0.03185935229307305 0.1473581074432946 0.1473581074432946 0.1473581074432946 0.1347304297270971 0.1347304297270971 0.1347304297270971 0.1835714460935335 
0.1835714460935335 0.1835714460935335 0.1905162920828195 0.1905162920828195 0.1905162920828195 0.3022350488513872 0.3022350488513872 0.3022350488513872 0.3070680485525784 
0.3070680485525784 0.3070680485525784 -0.3481300053593585 -0.3481300053593585 -0.3481300053593585 -0.3518748199471675 -0.3518748199471675 -0.3518748199471675 -0.3513804722489514 
-0.3513804722489514 -0.3513804722489514 -0.3524838459422342 -0.3524838459422342 -0.3524838459422342 0.03801858965700016 0.03801858965700016 0.03801858965700016 0.04256407017818997 
0.04256407017818997 0.04256407017818997 -0.01294938791736031 -0.01294938791736031 -0.01294938791736031 -0.003236717285450397 -0.003236717285450397 -0.003236717285450397 0.4838379859242785 
0.4838379859242785 0.4838379859242785 0.4897199323889472 0.4897199323889472 0.4897199323889472 0.9461118142154492 0.9461118142154492 0.9461118142154492 0.9545278428683679 
0.9545278428683679 0.9545278428683679 -0.2078927525982615 -0.2078927525982615 -0.2078927525982615 -0.1990882763593993 -0.1990882763593993 -0.1990882763593993 0.1271024343231319 
0.1271024343231319 0.1271024343231319 0.1210416800934074 0.1210416800934074 0.1210416800934074 -0.4776981084982717 -0.4776981084982717 -0.4776981084982717 -0.4654779968865738 
-0.4654779968865738 -0.4654779968865738 0.009452887554330908 0.009452887554330908 0.009452887554330908 0.01050030100523995 0.01050030100523995 0.01050030100523995 0.07682157607662238 
0.07682157607662238 0.07682157607662238 0.06914526313553036 0.06914526313553036 0.06914526313553036 -0.397177067171672 -0.397177067171672 -0.397177067171672 -0.411413736462109 
-0.411413736462109 -0.411413736462109 -0.1427950561805328 -0.1427950561805328 -0.1427950561805328 -0.1308617323975517 -0.1308617323975517 -0.1308617323975517 -0.001408296240115503 
-0.001408296240115503 -0.001408296240115503 -0.002786350132955636 -0.002786350132955636 -0.002786350132955636 0.2938371500710955 0.2938371500710955 0.2938371500710955 0.2979593146967803 
0.2979593146967803 0.2979593146967803 -0.05186251589060217 -0.05186251589060217 -0.05186251589060217 -0.05402134099411968 -0.05402134099411968 -0.05402134099411968 -0.1359885586657499 
-0.1359885586657499 -0.1359885586657499 -0.122580552919355 -0.122580552919355 -0.122580552919355 0.8439654507098827 0.8439654507098827 0.8439654507098827 0.8465297252695303 
0.8465297252695303 0.8465297252695303 0.1199330671642616 0.1199330671642616 0.1199330671642616 0.1231836984723715 0.1231836984723715 0.1231836984723715 -0.05556787340855933 
-0.05556787340855933 -0.05556787340855933 -0.0573054021029691 -0.0573054021029691 -0.0573054021029691 -0.4426612037058243 -0.4426612037058243 -0.4426612037058243 -0.444916153448692 
-0.444916153448692 -0.444916153448692 -0.3241501875670108 -0.3241501875670108 -0.3241501875670108 -0.3367338393576506 -0.3367338393576506 -0.3367338393576506 -0.2666218612710112 
-0.2666218612710112 -0.2666218612710112 -0.2798697516422806 -0.2798697516422806 -0.2798697516422806 0.04751559703772741 0.04751559703772741 0.04751559703772741 0.04411006399477139 
0.04411006399477139 0.04411006399477139 0.0539486040308091 0.0539486040308091 0.0539486040308091 0.03584112963314447 0.03584112963314447 0.03584112963314447 -0.05960818245095049 
-0.05960818245095049 -0.05960818245095049 -0.0710563002088728 -0.0710563002088728 -0.0710563002088728 -0.02080279167843861 -0.02080279167843861 -0.02080279167843861 -0.01640543617261233 
-0.01640543617261233 -0.01640543617261233 0.5633439431728664 0.5633439431728664 0.5633439431728664 0.573687506427353 0.573687506427353 0.573687506427353 0.2605751119188645 
0.2605751119188645 0.2605751119188645 0.2725777147445569 0.2725777147445569 0.2725777147445569 0.5150331550713735 0.5150331550713735 0.5150331550713735 0.008466139202918641 
0.008466139202918641 0.008466139202918641 0.01452149822262673 0.01452149822262673 0.01452149822262673 -0.4615002625795396 -0.4615002625795396 -0.4615002625795396 -0.4490832132669472 
-0.4490832132669472 -0.4490832132669472 -0.04624637677214551 -0.04624637677214551 -0.04624637677214551 -0.05117595601178327 -0.05117595601178327 -0.05117595601178327 -0.3291547283501503 
-0.3291547283501503 -0.3291547283501503 -0.3359148391460993 -0.3359148391460993 -0.3359148391460993 -0.603246874371003 -0.603246874371003 -0.603246874371003 -0.5951272761871492 
-0.5951272761871492 -0.5951272761871492 -0.4145246527573617 -0.4145246527573617 -0.4145246527573617 -0.1828087947915034 -0.1828087947915034 -0.1828087947915034 0.5656372186484914 
0.5656372186484914 0.5656372186484914 -0.4266425723543624 -0.4266425723543624 -0.4266425723543624 -0.002186908462513861 -0.002186908462513861 -0.002186908462513861 -0.2075183523651002 
-0.2075183523651002 -0.2075183523651002 -0.2131762184246308 -0.2131762184246308 -0.2131762184246308 -0.265391028164969 -0.265391028164969 -0.265391028164969 0.1507095122907984 
0.1507095122907984 0.1507095122907984 0.1001328987308404 0.1001328987308404 0.1001328987308404 0.01962522041396169 0.01962522041396169 0.01962522041396169 -0.9554893539324023 
-0.9554893539324023 -0.9554893539324023 -0.9651060403934746 -0.9651060403934746 -0.9651060403934746 0.8323220621906207 0.8323220621906207 0.8323220621906207 0.8406361283249574 
0.8406361283249574 0.8406361283249574 0.3067819551857837 0.3067819551857837 0.3067819551857837 0.3239844422273018 0.3239844422273018 0.3239844422273018 0.5273913208739324 
0.5273913208739324 0.5273913208739324 0.4958581283162247 0.4958581283162247 0.4958581283162247 -0.7378617754699782 -0.7378617754699782 -0.7378617754699782 -0.7083447359055375 
-0.7083447359055375 -0.7083447359055375 0.2521295704440521 0.2521295704440521 0.2521295704440521 0.2693605716159572 0.2693605716159572 0.2693605716159572 0.8529090472542405 
0.8529090472542405 0.8529090472542405 0.8386199972886922 0.8386199972886922 0.8386199972886922 -0.7186857437426295 -0.7186857437426295 -0.7186857437426295 -0.7304790274825579 
-0.7304790274825579 -0.7304790274825579 -0.9601596850963602 -0.9601596850963602 -0.9601596850963602 -0.968646087870118 -0.968646087870118 -0.968646087870118 -0.09787619255462998 
-0.09787619255462998 -0.09787619255462998 -0.06613763278833241 -0.06613763278833241 -0.06613763278833241 -0.4597717160985484 -0.4597717160985484 -0.4597717160985484 -0.432470843855282 
-0.432470843855282 -0.432470843855282 -0.100591316356249 -0.100591316356249 -0.100591316356249 -0.128107959933409 -0.128107959933409 -0.128107959933409 -0.8538575979332614 
-0.8538575979332614 -0.8538575979332614 -0.8708475364970765 -0.8708475364970765 -0.8708475364970765 0.5422792875629041 0.5422792875629041 0.5422792875629041 0.5741765826027336 
0.5741765826027336 0.5741765826027336 0.05233339352454889 0.05233339352454889 0.05233339352454889 0.0410518734461879 0.0410518734461879 0.0410518734461879 -0.3323908305068008 
-0.3323908305068008 -0.3323908305068008 -0.3131833170789672 -0.3131833170789672 -0.3131833170789672 0.4575729950556799 0.4575729950556799 0.4575729950556799 0.4533344983177288 
0.4533344983177288 0.4533344983177288 0.5323972872333691 0.5323972872333691 0.5323972872333691 0.511265142123653 0.511265142123653 0.511265142123653 -0.2182989690029763 
-0.2182989690029763 -0.2182989690029763 -0.1858484540172877 -0.1858484540172877 -0.1858484540172877 -0.7404481400509684 -0.7404481400509684 -0.7404481400509684 -0.7503115952875047 
-0.7503115952875047 -0.7503115952875047 0.455944850274463 0.455944850274463 0.455944850274463 0.4870476395001626 0.4870476395001626 0.4870476395001626 -0.9742575253931196 
-0.9742575253931196 -0.9742575253931196 -0.9713313018782745 -0.9713313018782745 -0.9713313018782745 -0.6457910665505613 -0.6457910665505613 -0.6457910665505613 -0.65081165297023 
-0.65081165297023 -0.65081165297023 0.8657339457286723 0.8657339457286723 0.8657339457286723 0.8772023051356458 0.8772023051356458 0.8772023051356458 0.063981429119997 
0.063981429119997 0.063981429119997 0.0478581266449026 0.0478581266449026 0.0478581266449026 -0.01927010313832053 -0.01927010313832053 -0.01927010313832053 -0.02293442820494091 
-0.02293442820494091 -0.02293442820494091 0.6963197079900645 0.6963197079900645 0.6963197079900645 0.6840811959840194 0.6840811959840194 0.6840811959840194 0.2540871686101318 
0.2540871686101318 0.2540871686101318 0.283965595307206 0.283965595307206 0.283965595307206 0.5035030183168734 0.5035030183168734 0.5035030183168734 0.471581865485652 
0.471581865485652 0.471581865485652 0.9471990431550582 0.9471990431550582 0.9471990431550582 0.9388946030882444 0.9388946030882444 0.9388946030882444 0.1577441491529288 
0.1577441491529288 0.1577441491529288 0.1676496380764546 0.1676496380764546 0.1676496380764546 0.2222898549103193 0.2222898549103193 0.2222898549103193 0.2160357916009467 
0.2160357916009467 0.2160357916009467 -0.0693945754328117 -0.0693945754328117 -0.0693945754328117 -0.05497910873807228 -0.05497910873807228 -0.05497910873807228 0.5269874778887575 
0.5269874778887575 0.5269874778887575 0.5080822366382638 0.5080822366382638 0.5080822366382638 -0.4282658264408676 -0.4282658264408676 -0.4282658264408676 -0.4394081523946625 
-0.4394081523946625 -0.4394081523946625 -0.7859707371422617 -0.7859707371422617 -0.7859707371422617 -0.8056066489996737 -0.8056066489996737 -0.8056066489996737 -0.3513664938050968 
-0.3513664938050968 -0.3513664938050968 -0.3724223698261416 -0.3724223698261416 -0.3724223698261416 -0.5836994688500532 -0.5836994688500532 -0.5836994688500532 -0.5665544219652925 
-0.5665544219652925 -0.5665544219652925 -0.9902504174204518 -0.9902504174204518 -0.9902504174204518 -0.9885121116946328 -0.9885121116946328 -0.9885121116946328 -0.5066413563297019 
-0.5066413563297019 -0.5066413563297019 -0.492809089982174 -0.492809089982174 -0.492809089982174 0.2261488097759304 0.2261488097759304 0.2261488097759304 0.2235118723000862 
0.2235118723000862 0.2235118723000862 0.9879976722277084 0.9879976722277084 0.9879976722277084 0.984485507369341 0.984485507369341 0.984485507369341 -0.03776606097145428 
-0.03776606097145428 -0.03776606097145428 -0.02941047789796482 -0.02941047789796482 -0.02941047789796482 -0.6477358117387476 -0.6477358117387476 -0.6477358117387476 -0.6267895998299228 
-0.6267895998299228 -0.6267895998299228 0.9744337344389971 0.9744337344389971 0.9744337344389971 0.9744999320630849 0.9744999320630849 0.9744999320630849 0.6817013748598 
0.6817013748598 0.6817013748598 0.6651439162173609 0.6651439162173609 0.6651439162173609 0.1356581521029701 0.1356581521029701 0.1356581521029701 0.1679163601474911 
0.1679163601474911 0.1679163601474911 -0.6272244964104978 -0.6272244964104978 -0.6272244964104978 -0.6221113270995151 -0.6221113270995151 -0.6221113270995151 0.07161829358231836 
0.07161829358231836 0.07161829358231836 0.06972581781289815 0.06972581781289815 0.06972581781289815 0.4681558082603818 0.4681558082603818 0.4681558082603818 0.4334430141127636 
0.4334430141127636 0.4334430141127636 0.01534657689654725 0.01534657689654725 0.01534657689654725 0.01041670808870507 0.01041670808870507 0.01041670808870507 -0.378031212318255 
-0.378031212318255 -0.378031212318255 -0.3812472635958716 -0.3812472635958716 -0.3812472635958716 0.9295066384732324 0.9295066384732324 0.9295066384732324 0.9396196320036321 
0.9396196320036321 0.9396196320036321 -0.3411124320897407 -0.3411124320897407 -0.3411124320897407 -0.3768811023159375 -0.3768811023159375 -0.3768811023159375 0.09637919206727942 
0.09637919206727942 0.09637919206727942 0.06602156593803529 0.06602156593803529 0.06602156593803529 -0.4756088451661327 -0.4756088451661327 -0.4756088451661327 -0.4966944586578495 
-0.4966944586578495 -0.4966944586578495 0.06979434974404128 0.06979434974404128 0.06979434974404128 0.05017844747823622 0.05017844747823622 0.05017844747823622 0.8678857292853874 
0.8678857292853874 0.8678857292853874 0.8493668204844244 0.8493668204844244 0.8493668204844244 -0.1150678614806531 -0.1150678614806531 -0.1150678614806531 -0.1064220405679273 
-0.1064220405679273 -0.1064220405679273 -0.676654252299538 -0.676654252299538 -0.676654252299538 -0.667871836347369 -0.667871836347369 -0.667871836347369 -0.4064406023133373 
-0.4064406023133373 -0.4064406023133373 -0.3769575184575329 -0.3769575184575329 -0.3769575184575329 -0.1017285999712181 -0.1017285999712181 -0.1017285999712181 -0.1465490780109626 
-0.1465490780109626 -0.1465490780109626 -0.8037640663449024 -0.8037640663449024 -0.8037640663449024 -0.8207569398438141 -0.8207569398438141 -0.8207569398438141 -0.865724583478805 
-0.865724583478805 -0.865724583478805 -0.8549316934323734 -0.8549316934323734 -0.8549316934323734 0.05611412818581742 0.05611412818581742 0.05611412818581742 0.05947120315977229 
0.05947120315977229 0.05947120315977229 -0.1818486675418698 -0.1818486675418698 -0.1818486675418698 -0.21246958470546 -0.21246958470546 -0.21246958470546 -0.03036875249584831 
-0.03036875249584831 -0.03036875249584831 -0.03208167386175954 -0.03208167386175954 -0.03208167386175954 0.9813781337518128 0.9813781337518128 0.9813781337518128 0.9821002799047114 
0.9821002799047114 0.9821002799047114 0.9795738956195372 0.9795738956195372 0.9795738956195372 0.9759396794540121 0.9759396794540121 0.9759396794540121 -0.6347794051829683 
-0.6347794051829683 -0.6347794051829683 -0.6256738916193658 -0.6256738916193658 -0.6256738916193658 -0.6140523045643793 -0.6140523045643793 -0.6140523045643793 0.8746628162270733 
0.8746628162270733 0.8746628162270733 0.8880559809203881 0.8880559809203881 0.8880559809203881 0.8946662622810303 0.8946662622810303 0.8946662622810303 0.9025534287773761 
0.9025534287773761 0.9025534287773761 -0.01006256891698187 -0.01006256891698187 -0.01006256891698187 -0.02835516116490691 -0.02835516116490691 -0.02835516116490691 -0.03194987502575489 
-0.03194987502575489 -0.03194987502575489 0.8310903424837488 0.8310903424837488 0.8310903424837488 0.8232128045724424 0.8232128045724424 0.8232128045724424 0.8311367080374563 
0.8311367080374563 0.8311367080374563 0.8877683045618642 0.8877683045618642 0.8877683045618642 0.8831221292162784 0.8831221292162784 0.8831221292162784 0.8884483899882065 
0.8884483899882065 0.8884483899882065 -0.03821720743154428 -0.03821720743154428 -0.03821720743154428 -0.0418344207781134 -0.0418344207781134 -0.0418344207781134 -0.04586330814275495 
-0.04586330814275495 -0.04586330814275495 -0.9079678992366675 -0.9079678992366675 -0.9079678992366675 -0.9035583630484028 -0.9035583630484028 -0.9035583630484028 -0.9106326964698732 
-0.9106326964698732 -0.9106326964698732 0.1513831430943925 0.1513831430943925 0.1513831430943925 0.1515717198567547 0.1515717198567547 0.1515717198567547 0.1632757462953772 
0.1632757462953772 0.1632757462953772 0.006428835645546163 0.006428835645546163 0.006428835645546163 -0.01681828045875947 -0.01681828045875947 -0.01681828045875947 -0.01224033659767819 
-0.01224033659767819 -0.01224033659767819 -0.7352913759930751 -0.7352913759930751 -0.7352913759930751 -0.7244096430564168 -0.7244096430564168 -0.7244096430564168 -0.7094988424079494 
-0.7094988424079494 -0.7094988424079494 -0.4477089577824249 -0.4477089577824249 -0.4477089577824249 -0.4395349552423733 -0.4395349552423733 -0.4395349552423733 -0.421911904131378 
-0.421911904131378 -0.421911904131378 -0.6175059359745536 -0.6175059359745536 -0.6175059359745536 -0.6239206091361567 -0.6239206091361567 -0.6239206091361567 -0.1350731220983354 
-0.1350731220983354 -0.1350731220983354 -0.1155998647572548 -0.1155998647572548 -0.1155998647572548 -0.1226053758731342 -0.1226053758731342 -0.1226053758731342 -0.0381479327907352 
-0.0381479327907352 -0.0381479327907352 -0.03481307515409439 -0.03481307515409439 -0.03481307515409439 -0.03332946807259521 -0.03332946807259521 -0.03332946807259521 0.00973665278250317 
0.00973665278250317 0.00973665278250317 0.01932111188806877 0.01932111188806877 0.01932111188806877 0.01293378940012218 0.01293378940012218 0.01293378940012218 0.1535609010349106 
0.1535609010349106 0.1535609010349106 0.1401883395915712 0.1401883395915712 0.1401883395915712 0.1338466389909437 0.1338466389909437 0.1338466389909437 -0.002000224334865288 
-0.002000224334865288 -0.002000224334865288 0.003920742896904432 0.003920742896904432 0.003920742896904432 0.01138464218628219 0.01138464218628219 0.01138464218628219 0.3807601653285802 
0.3807601653285802 0.3807601653285802 0.3685430057537032 0.3685430057537032 0.3685430057537032 0.3618017828595657 0.3618017828595657 0.3618017828595657 0.5872387427721784 
0.5872387427721784 0.5872387427721784 0.5964134328337227 0.5964134328337227 0.5964134328337227 0.1911971119684873 0.1911971119684873 0.1911971119684873 0.1946329330466958 
0.1946329330466958 0.1946329330466958 -0.1833254003606871 -0.1833254003606871 -0.1833254003606871 -0.198273963499308 -0.198273963499308 -0.198273963499308 0.4787046454029969 
0.4787046454029969 0.4787046454029969 0.4744652466084114 0.4744652466084114 0.4744652466084114 -0.06335371936880961 -0.06335371936880961 -0.06335371936880961 -0.07962673034928847 
-0.07962673034928847 -0.07962673034928847 0.04660769461335075 0.04660769461335075 0.04660769461335075 0.06169188678653829 0.06169188678653829 0.06169188678653829 0.854048732685311 
0.854048732685311 0.854048732685311 0.8676977885145174 0.8676977885145174 0.8676977885145174 0.01626952881249966 0.01626952881249966 0.01626952881249966 0.01276500809175151 
0.01276500809175151 0.01276500809175151 -0.03021561323503933 -0.03021561323503933 -0.03021561323503933 -0.01608521485503303 -0.01608521485503303 -0.01608521485503303 -0.3782218163991222 
-0.3782218163991222 -0.3782218163991222 -0.3807397111981455 -0.3807397111981455 -0.3807397111981455 -0.6439614567612892 -0.6439614567612892 -0.6439614567612892 -0.6297894120907048 
-0.6297894120907048 -0.6297894120907048 -0.9811454357463536 -0.9811454357463536 -0.9811454357463536 -0.9812663270351538 -0.9812663270351538 -0.9812663270351538 0.4830972181207929 
0.4830972181207929 0.4830972181207929 0.4913670011652499 0.4913670011652499 0.4913670011652499 0.9547567128787786 0.9547567128787786 0.9547567128787786 0.9625924477298389 
0.9625924477298389 0.9625924477298389 0.6218979057365519 0.6218979057365519 0.6218979057365519 0.6103901079908706 0.6103901079908706 0.6103901079908706 0.01584256713701643 
0.01584256713701643 0.01584256713701643 -0.001149526228025165 -0.001149526228025165 -0.001149526228025165 -0.3425855642321591 -0.3425855642321591 -0.3425855642321591 -0.3658229827739058 
-0.3658229827739058 -0.3658229827739058 -0.09026985599667997 -0.09026985599667997 -0.09026985599667997 -0.1107136879114522 -0.1107136879114522 -0.1107136879114522 0.4637867828421974 
0.4637867828421974 0.4637867828421974 0.451415832407938 0.451415832407938 0.451415832407938 -0.2696212890995071 -0.2696212890995071 -0.2696212890995071 -0.2807338250745439 
-0.2807338250745439 -0.2807338250745439 -0.783498884014475 -0.783498884014475 -0.783498884014475 -0.8032321700301328 -0.8032321700301328 -0.8032321700301328 -0.3265673941443238 
-0.3265673941443238 -0.3265673941443238 -0.3428900987519241 -0.3428900987519241 -0.3428900987519241 0.9275491309280471 0.9275491309280471 0.9275491309280471 0.921479676316253 
0.921479676316253 0.921479676316253 -0.245154789739871 -0.245154789739871 -0.245154789739871 -0.2390409982178256 -0.2390409982178256 -0.2390409982178256 -0.00887600274856599 
-0.00887600274856599 -0.00887600274856599 -0.03035778244706334 -0.03035778244706334 -0.03035778244706334 -0.4084986329436099 -0.4084986329436099 -0.4084986329436099 -0.4033201455206981 
-0.4033201455206981 -0.4033201455206981 -0.4005137149986103 -0.4005137149986103 -0.4005137149986103 -0.4054934594804778 -0.4054934594804778 -0.4054934594804778 0.00291390210476416 
0.00291390210476416 0.00291390210476416 0.003578010751168915 0.003578010751168915 0.003578010751168915 -0.3432256673300785 -0.3432256673300785 -0.3432256673300785 -0.3431790031107969 
-0.3431790031107969 -0.3431790031107969 0.4604888701043278 0.4604888701043278 0.4604888701043278 0.4643582534630052 0.4643582534630052 0.4643582534630052 -0.6003038316107834 
-0.6003038316107834 -0.6003038316107834 -0.5789219701642283 -0.5789219701642283 -0.5789219701642283 -0.4118535730088544 -0.4118535730088544 -0.4118535730088544 -0.4230347301872828 
-0.4230347301872828 -0.4230347301872828 0.5174006823999624 0.5174006823999624 0.5174006823999624 0.5299000068120917 0.5299000068120917 0.5299000068120917 -0.5653485333115839 
-0.5653485333115839 -0.5653485333115839 -0.5439190564853613 -0.5439190564853613 -0.5439190564853613 -0.3499086315043767 -0.3499086315043767 -0.3499086315043767 -0.3406886282624476 
-0.3406886282624476 -0.3406886282624476 0.3716514887494154 0.3716514887494154 0.3716514887494154 0.3559900687801516 0.3559900687801516 0.3559900687801516 -0.08752378415005116 
-0.08752378415005116 -0.08752378415005116 -0.07423301731111215 -0.07423301731111215 -0.07423301731111215 -0.5400232450681081 -0.5400232450681081 -0.5400232450681081 -0.5275400433660341 
-0.5275400433660341 -0.5275400433660341 0.0002137571744403654 0.0002137571744403654 0.0002137571744403654 0.002825894384609155 0.002825894384609155 0.002825894384609155 -0.2947913022192425 
-0.2947913022192425 -0.2947913022192425 -0.3227361220484719 -0.3227361220484719 -0.3227361220484719 -0.001473870713724257 -0.001473870713724257 -0.001473870713724257 -0.001019298387452799 
-0.001019298387452799 -0.001019298387452799 0.4705395100180116 0.4705395100180116 0.4705395100180116 0.4542425446778453 0.4542425446778453 0.4542425446778453 0.9896127374999582 
0.9896127374999582 0.9896127374999582 0.9894788905344329 0.9894788905344329 0.9894788905344329 -0.352330163803835 -0.352330163803835 -0.352330163803835 -0.3376259629393787 
-0.3376259629393787 -0.3376259629393787 -0.7587798371948697 -0.7587798371948697 -0.7587798371948697 -0.7431848012414931 -0.7431848012414931 -0.7431848012414931 -0.06157144250724943 
-0.06157144250724943 -0.06157144250724943 -0.05158363642566217 -0.05158363642566217 -0.05158363642566217 -0.02123411283889833 -0.02123411283889833 -0.02123411283889833 -0.03008626086672592 
-0.03008626086672592 -0.03008626086672592 -0.8065434318291654 -0.8065434318291654 -0.8065434318291654 -0.7860158693260171 -0.7860158693260171 -0.7860158693260171 -0.2771947025288777 
-0.2771947025288777 -0.2771947025288777 -0.3000529726567909 -0.3000529726567909 -0.3000529726567909 -0.5123876270689897 -0.5123876270689897 -0.5123876270689897 -0.5187215280537678 
-0.5187215280537678 -0.5187215280537678 -0.8728331158686977 -0.8728331158686977 -0.8728331158686977 -0.8777568369900931 -0.8777568369900931 -0.8777568369900931 0.1545289794112657 
0.1545289794112657 0.1545289794112657 0.1526135602093871 0.1526135602093871 0.1526135602093871 0.936392194656346 0.936392194656346 0.936392194656346 0.926070908314372 
0.926070908314372 0.926070908314372 -0.1262015571844895 -0.1262015571844895 -0.1262015571844895 -0.1327477250803544 -0.1327477250803544 -0.1327477250803544 -0.2433157758201961 
-0.2433157758201961 -0.2433157758201961 -0.2595143249462315 -0.2595143249462315 -0.2595143249462315 -0.1659577796937873 -0.1659577796937873 -0.1659577796937873 -0.1564876682902415 
-0.1564876682902415 -0.1564876682902415 -0.3171737711206079 -0.3171737711206079 -0.3171737711206079 -0.3195638707088515 -0.3195638707088515 -0.3195638707088515 -0.1575694575644874 
-0.1575694575644874 -0.1575694575644874 -0.1476227234907551 -0.1476227234907551 -0.1476227234907551 -0.09443037716828104 -0.09443037716828104 -0.09443037716828104 -0.08975079680412469 
-0.08975079680412469 -0.08975079680412469 0.242387757220909 0.242387757220909 0.242387757220909 0.2597134727606198 0.2597134727606198 0.2597134727606198 0.505887460755434 
0.505887460755434 0.505887460755434 0.503705333513922 0.503705333513922 0.503705333513922 0.8883598380343796 0.8883598380343796 0.8883598380343796 0.8821786754420629 
0.8821786754420629 0.8821786754420629 0.1324690227519612 0.1324690227519612 0.1324690227519612 0.1146345019269399 0.1146345019269399 0.1146345019269399 -0.6945328699504533 
-0.6945328699504533 -0.6945328699504533 -0.7002517072063155 -0.7002517072063155 -0.7002517072063155 -0.6503944899650669 -0.6503944899650669 -0.6503944899650669 -0.6521197390072081 
-0.6521197390072081 -0.6521197390072081 0.1384477220694269 0.1384477220694269 0.1384477220694269 0.1589509447692764 0.1589509447692764 0.1589509447692764 0.2556820575506012 
0.2556820575506012 0.2556820575506012 0.2467280448910431 0.2467280448910431 0.2467280448910431 -0.9517300774247224 -0.9517300774247224 -0.9517300774247224 -0.956117419449115 
-0.956117419449115 -0.956117419449115 0.1333641400826613 0.1333641400826613 0.1333641400826613 0.1255093281420075 0.1255093281420075 0.1255093281420075 -0.3260909534051121 
-0.3260909534051121 -0.3260909534051121 -0.3423137539567865 -0.3423137539567865 -0.3423137539567865 0.2286362603494453 0.2286362603494453 0.2286362603494453 0.2161326678245094 
0.2161326678245094 0.2161326678245094 -0.9423907589399025 -0.9423907589399025 -0.9423907589399025 -0.9464145966030661 -0.9464145966030661 -0.9464145966030661 -0.3622578670254322 
-0.3622578670254322 -0.3622578670254322 -0.3483471735546004 -0.3483471735546004 -0.3483471735546004 -0.008428355026162362 -0.008428355026162362 -0.008428355026162362 -0.0102958835266061 
-0.0102958835266061 -0.0102958835266061 -0.1537211776048066 -0.1537211776048066 -0.1537211776048066 -0.1628116667085233 -0.1628116667085233 -0.1628116667085233 -0.0659248695454708 
-0.0659248695454708 -0.0659248695454708 -0.0622533543048697 -0.0622533543048697 -0.0622533543048697 0.1963509100196995 0.1963509100196995 0.1963509100196995 0.1745449558922632 
0.1745449558922632 0.1745449558922632 -0.2615162306807438 -0.2615162306807438 -0.2615162306807438 -0.2743749775470368 -0.2743749775470368 -0.2743749775470368 0.4276735551678141 
0.4276735551678141 0.4276735551678141 0.4468702055484369 0.4468702055484369 0.4468702055484369 0.8182584461129208 0.8182584461129208 0.8182584461129208 0.8259921077506618 
0.8259921077506618 0.8259921077506618 -0.4364865267492602 -0.4364865267492602 -0.4364865267492602 -0.4540857496407702 -0.4540857496407702 -0.4540857496407702 -0.01273051683291584 
-0.01273051683291584 -0.01273051683291584 -0.0134489474430073 -0.0134489474430073 -0.0134489474430073 -0.8716849620955196 -0.8716849620955196 -0.8716849620955196 -0.8782997767292083 
-0.8782997767292083 -0.8782997767292083 -0.752489523209206 -0.752489523209206 -0.752489523209206 -0.777408402738666 -0.777408402738666 -0.777408402738666 -0.402401743123746 
-0.402401743123746 -0.402401743123746 -0.3927370149410275 -0.3927370149410275 -0.3927370149410275 0.1057981693171468 0.1057981693171468 0.1057981693171468 0.09165509054436891 
0.09165509054436891 0.09165509054436891 -0.3395244426368945 -0.3395244426368945 -0.3395244426368945 -0.349488311207242 -0.349488311207242 -0.349488311207242 -0.1995577755031244 
-0.1995577755031244 -0.1995577755031244 -0.1869993539460375 -0.1869993539460375 -0.1869993539460375 -0.2426122321618696 -0.2426122321618696 -0.2426122321618696 -0.250312927054913 
-0.250312927054913 -0.250312927054913 -0.5861742644398493 -0.5861742644398493 -0.5861742644398493 -0.6010642430403461 -0.6010642430403461 -0.6010642430403461 0.1519242134872092 
0.1519242134872092 0.1519242134872092 0.145557802792842 0.145557802792842 0.145557802792842 0.02236136496376803 0.02236136496376803 0.02236136496376803 -0.0143078017593378 
-0.0143078017593378 -0.0143078017593378 0.5197629729966182 0.5197629729966182 0.5197629729966182 0.5189574904254758 0.5189574904254758 0.5189574904254758 0.1543255326112282 
0.1543255326112282 0.1543255326112282 0.1483446373329218 0.1483446373329218 0.1483446373329218 0.7704653819364214 0.7704653819364214 0.7704653819364214 0.763177524314641 
0.763177524314641 0.763177524314641 0.1841747732461164 0.1841747732461164 0.1841747732461164 0.2001384025741894 0.2001384025741894 0.2001384025741894 -0.6040366174538884 
-0.6040366174538884 -0.6040366174538884 -0.6049719733213527 -0.6049719733213527 -0.6049719733213527 0.2201611464542148 0.2201611464542148 0.2201611464542148 0.2313935661322728 