Title = Triangle150
FileType = Solution
Variables = q
Zone T = Triangle150
ZoneType = FETriangle
Nodes = 212082
Elements = 70694
DataPacking = Block
StrandID = 3
SolutionTime = 0.2
0.159410672531447 0.159410672531447 0.159410672531447 0.1468323483998697 0.1468323483998697 0.1468323483998697 0.1502989758103175 0.1502989758103175 0.1502989758103175 -0.142294148977591 
-0.142294148977591 -0.142294148977591 -0.1320597188408301 -0.1320597188408301 -0.1320597188408301 -0.1204001781086468 -0.1204001781086468 -0.1204001781086468 0.1463393610122555 
0.1463393610122555 0.1463393610122555 0.1177556872084156 0.1177556872084156 0.1177556872084156 0.09804053676261883 0.09804053676261883 0.09804053676261883 0.8232387835790511 
0.8232387835790511 0.8232387835790511 0.8310142248780155 0.8310142248780155 0.8310142248780155 0.8384697225915096 0.8384697225915096 0.8384697225915096 -0.04285130212514543 
-0.04285130212514543 -0.04285130212514543 -0.0634360337224195 -0.0634360337224195 -0.0634360337224195 -0.05848359353073127 -0.05848359353073127 -0.05848359353073127 -0.9728736195081606 
-0.9728736195081606 -0.9728736195081606 -0.9735044111393607 -0.9735044111393607 -0.9735044111393607 -0.9753941973352322 -0.9753941973352322 -0.9753941973352322 -0.6421877525853739 
-0.6421877525853739 -0.6421877525853739 -0.6239514073366812 -0.6239514073366812 -0.6239514073366812 0.7508146779844649 0.7508146779844649 0.7508146779844649 0.7602993978689039 
0.7602993978689039 0.7602993978689039 -0.05418221499475912 -0.05418221499475912 -0.05418221499475912 -0.07035361464455894 -0.07035361464455894 -0.07035361464455894 -0.1180223788159381 
-0.1180223788159381 -0.1180223788159381 -0.121331689945826 -0.121331689945826 -0.121331689945826 -0.06910505106120091 -0.06910505106120091 -0.06910505106120091 -0.06323897668690694 
-0.06323897668690694 -0.06323897668690694 0.6939000584506992 0.6939000584506992 0.6939000584506992 0.6854550952982766 0.6854550952982766 0.6854550952982766 0.3152823353655638 
0.3152823353655638 0.3152823353655638 0.3138323409567882 0.3138323409567882 0.3138323409567882 0.278710716925523 0.278710716925523 0.278710716925523 0.2722715772080546 
0.2722715772080546 0.2722715772080546 -0.8329597973149581 -0.8329597973149581 -0.8329597973149581 -0.8360192624760303 -0.8360192624760303 -0.8360192624760303 -0.6273022261989937 
-0.6273022261989937 -0.6273022261989937 -0.6200197397587703 -0.6200197397587703 -0.6200197397587703 0.06817663664407636 0.06817663664407636 0.06817663664407636 0.06261208790489341 
0.06261208790489341 0.06261208790489341 0.2788962342568358 0.2788962342568358 0.2788962342568358 0.2928121309773971 0.2928121309773971 0.2928121309773971 0.1219925055935574 
0.1219925055935574 0.1219925055935574 0.1265307597743119 0.1265307597743119 0.1265307597743119 0.8061802227670968 0.8061802227670968 0.8061802227670968 0.8077386496191883 
0.8077386496191883 0.8077386496191883 0.06821807290857786 0.06821807290857786 0.06821807290857786 0.07716930670489384 0.07716930670489384 0.07716930670489384 -0.121319207320408 
-0.121319207320408 -0.121319207320408 -0.1126711241560279 -0.1126711241560279 -0.1126711241560279 -0.6043026986123246 -0.6043026986123246 -0.6043026986123246 -0.5886298060376705 
-0.5886298060376705 -0.5886298060376705 0.2486390305458073 0.2486390305458073 0.2486390305458073 0.2515264219653217 0.2515264219653217 0.2515264219653217 -0.1445192104353357 
-0.1445192104353357 -0.1445192104353357 -0.1465022099612871 -0.1465022099612871 -0.1465022099612871 -0.5737124058711766 -0.5737124058711766 -0.5737124058711766 -0.5903011745954658 
-0.5903011745954658 -0.5903011745954658 -0.6482006152271163 -0.6482006152271163 -0.6482006152271163 -0.6282177802406745 -0.6282177802406745 -0.6282177802406745 -0.07726610179064086 
-0.07726610179064086 -0.07726610179064086 -0.08337262735830882 -0.08337262735830882 -0.08337262735830882 0.3438137321069555 0.3438137321069555 0.3438137321069555 0.3370238551083486 
0.3370238551083486 0.3370238551083486 0.03126460873135188 0.03126460873135188 0.03126460873135188 0.03667729060638789 0.03667729060638789 0.03667729060638789 0.2377160551008335 
0.2377160551008335 0.2377160551008335 0.2468031296667624 0.2468031296667624 0.2468031296667624 0.7510823737738366 0.7510823737738366 0.7510823737738366 0.7454445500755346 
0.7454445500755346 0.7454445500755346 0.1501654298470912 0.1501654298470912 0.1501654298470912 0.1448860673698578 0.1448860673698578 0.1448860673698578 0.1368637048373254 
0.1368637048373254 0.1368637048373254 0.1452531144889412 0.1452531144889412 0.1452531144889412 -0.3665314872126327 -0.3665314872126327 -0.3665314872126327 -0.361312554070727 
-0.361312554070727 -0.361312554070727 -0.6526435981045537 -0.6526435981045537 -0.6526435981045537 -0.6634214694345872 -0.6634214694345872 -0.6634214694345872 0.2618966189428651 
0.2618966189428651 0.2618966189428651 0.2527592306289583 0.2527592306289583 0.2527592306289583 -0.2747522872873615 -0.2747522872873615 -0.2747522872873615 -0.2842521346624532 
-0.2842521346624532 -0.2842521346624532 0.5566313138526108 0.5566313138526108 0.5566313138526108 0.5374990986037267 0.5374990986037267 0.5374990986037267 -0.5807132959003241 
-0.5807132959003241 -0.5807132959003241 -0.5875063807818988 -0.5875063807818988 -0.5875063807818988 -0.3328060023970267 -0.3328060023970267 -0.3328060023970267 -0.3249355591954382 
-0.3249355591954382 -0.3249355591954382 0.9386618489376364 0.9386618489376364 0.9386618489376364 0.941751008408705 0.941751008408705 0.941751008408705 0.7571773128262588 
0.7571773128262588 0.7571773128262588 0.767292084125349 0.767292084125349 0.767292084125349 0.1394303249036546 0.1394303249036546 0.1394303249036546 0.3075183330659195 
0.3075183330659195 0.3075183330659195 0.3166897931873176 0.3166897931873176 0.3166897931873176 -0.7465404314520241 -0.7465404314520241 -0.7465404314520241 -0.7446860373275693 
-0.7446860373275693 -0.7446860373275693 -0.03328908931822804 -0.03328908931822804 -0.03328908931822804 -0.02963401433298016 -0.02963401433298016 -0.02963401433298016 -0.6242622861699568 
-0.6242622861699568 -0.6242622861699568 -0.6274290925999866 -0.6274290925999866 -0.6274290925999866 -0.2137877647475205 -0.2137877647475205 -0.2137877647475205 -0.2054816656832773 
-0.2054816656832773 -0.2054816656832773 -0.6818660734161046 -0.6818660734161046 -0.6818660734161046 0.0117575336512253 0.0117575336512253 0.0117575336512253 0.7947823550590709 
0.7947823550590709 0.7947823550590709 -0.1812182858673861 -0.1812182858673861 -0.1812182858673861 0.5448312489104077 0.5448312489104077 0.5448312489104077 0.1229146977452454 
0.1229146977452454 0.1229146977452454 -0.744738787632794 -0.744738787632794 -0.744738787632794 -0.7295555655392367 -0.7295555655392367 -0.7295555655392367 -0.03688849501069462 
-0.03688849501069462 -0.03688849501069462 0.1252187087443066 0.1252187087443066 0.1252187087443066 0.3201193917056621 0.3201193917056621 0.3201193917056621 -0.8482484083455809 
-0.8482484083455809 -0.8482484083455809 -0.8404738898197734 -0.8404738898197734 -0.8404738898197734 0.9729845918698019 0.9729845918698019 0.9729845918698019 0.972579713849236 
0.972579713849236 0.972579713849236 0.00464364443189333 0.00464364443189333 0.00464364443189333 0.01815333143662308 0.01815333143662308 0.01815333143662308 0.1980409001826147 
0.1980409001826147 0.1980409001826147 0.1686673356692269 0.1686673356692269 0.1686673356692269 -0.4650117462422363 -0.4650117462422363 -0.4650117462422363 -0.4363390203868487 
-0.4363390203868487 -0.4363390203868487 -0.0657914639984428 -0.0657914639984428 -0.0657914639984428 -0.0527977548604439 -0.0527977548604439 -0.0527977548604439 0.6809302036543408 
0.6809302036543408 0.6809302036543408 0.6561220828759775 0.6561220828759775 0.6561220828759775 -0.2798908556514763 -0.2798908556514763 -0.2798908556514763 -0.2967355770212464 
-0.2967355770212464 -0.2967355770212464 -0.7728125750756246 -0.7728125750756246 -0.7728125750756246 -0.7736400295879823 -0.7736400295879823 -0.7736400295879823 -0.2735019561714927 
-0.2735019561714927 -0.2735019561714927 -0.2469418777152317 -0.2469418777152317 -0.2469418777152317 -0.816320225849153 -0.816320225849153 -0.816320225849153 -0.8082265132357642 
-0.8082265132357642 -0.8082265132357642 -0.03707750064941659 -0.03707750064941659 -0.03707750064941659 -0.04889025534600598 -0.04889025534600598 -0.04889025534600598 -0.9636053653952473 
-0.9636053653952473 -0.9636053653952473 -0.9597598875865542 -0.9597598875865542 -0.9597598875865542 0.3785832015088558 0.3785832015088558 0.3785832015088558 0.4157215301410945 
0.4157215301410945 0.4157215301410945 0.1307839270755513 0.1307839270755513 0.1307839270755513 0.1450409534946743 0.1450409534946743 0.1450409534946743 -0.823767067248097 
-0.823767067248097 -0.823767067248097 -0.8094022657198523 -0.8094022657198523 -0.8094022657198523 0.1765665170207137 0.1765665170207137 0.1765665170207137 0.152257845166033 
0.152257845166033 0.152257845166033 0.7929289423915652 0.7929289423915652 0.7929289423915652 0.7850138352576237 0.7850138352576237 0.7850138352576237 0.07598967918975144 
0.07598967918975144 0.07598967918975144 0.1044916168942533 0.1044916168942533 0.1044916168942533 -0.2059900222907615 -0.2059900222907615 -0.2059900222907615 -0.2200958866586751 
-0.2200958866586751 -0.2200958866586751 0.2464585184272318 0.2464585184272318 0.2464585184272318 0.2850909047501583 0.2850909047501583 0.2850909047501583 -0.8577410479855905 
-0.8577410479855905 -0.8577410479855905 -0.8667716912988863 -0.8667716912988863 -0.8667716912988863 -0.2829014340852294 -0.2829014340852294 -0.2829014340852294 -0.2931189773301717 
-0.2931189773301717 -0.2931189773301717 0.449243546619207 0.449243546619207 0.449243546619207 0.4714017478779692 0.4714017478779692 0.4714017478779692 -0.3469118216889864 
-0.3469118216889864 -0.3469118216889864 -0.3712979728943653 -0.3712979728943653 -0.3712979728943653 -0.09827041285031649 -0.09827041285031649 -0.09827041285031649 -0.0889303154764768 
-0.0889303154764768 -0.0889303154764768 0.2696442286613514 0.2696442286613514 0.2696442286613514 0.2520182079481204 0.2520182079481204 0.2520182079481204 -0.03277941132545646 
-0.03277941132545646 -0.03277941132545646 -0.01145258218091456 -0.01145258218091456 -0.01145258218091456 0.1391096055438638 0.1391096055438638 0.1391096055438638 0.1207195111349473 
0.1207195111349473 0.1207195111349473 0.8459719743168628 0.8459719743168628 0.8459719743168628 0.8424275356640939 0.8424275356640939 0.8424275356640939 0.003024461861491617 
0.003024461861491617 0.003024461861491617 0.004995717079988733 0.004995717079988733 0.004995717079988733 0.008593181588458818 0.008593181588458818 0.008593181588458818 0.00711806956603243 
0.00711806956603243 0.00711806956603243 -0.288615327661348 -0.288615327661348 -0.288615327661348 -0.2658251493808643 -0.2658251493808643 -0.2658251493808643 0.8073246413157358 
0.8073246413157358 0.8073246413157358 0.7885484109986615 0.7885484109986615 0.7885484109986615 -0.2253831100379873 -0.2253831100379873 -0.2253831100379873 -0.2513272095468794 
-0.2513272095468794 -0.2513272095468794 -0.3809410530465445 -0.3809410530465445 -0.3809410530465445 -0.4050056176784467 -0.4050056176784467 -0.4050056176784467 -0.8003661078954513 
-0.8003661078954513 -0.8003661078954513 -0.8168618498460579 -0.8168618498460579 -0.8168618498460579 -0.7052780517290549 -0.7052780517290549 -0.7052780517290549 -0.6707041104574731 
-0.6707041104574731 -0.6707041104574731 -0.7837678567193049 -0.7837678567193049 -0.7837678567193049 -0.781608614582493 -0.781608614582493 -0.781608614582493 -0.5062038959964723 
-0.5062038959964723 -0.5062038959964723 -0.4964133964226172 -0.4964133964226172 -0.4964133964226172 0.2429020883061649 0.2429020883061649 0.2429020883061649 0.2253133250755895 
0.2253133250755895 0.2253133250755895 0.7367246119989457 0.7367246119989457 0.7367246119989457 0.7399245657215007 0.7399245657215007 0.7399245657215007 0.2467236312641299 
0.2467236312641299 0.2467236312641299 0.2337071678314646 0.2337071678314646 0.2337071678314646 -0.2815453053279384 -0.2815453053279384 -0.2815453053279384 -0.2660723104868651 
-0.2660723104868651 -0.2660723104868651 0.8211320255427554 0.8211320255427554 0.8211320255427554 0.8025298357624759 0.8025298357624759 0.8025298357624759 0.7135546369491383 
0.7135546369491383 0.7135546369491383 0.7183678838329768 0.7183678838329768 0.7183678838329768 -0.4573667435264935 -0.4573667435264935 -0.4573667435264935 -0.42855503719733 
-0.42855503719733 -0.42855503719733 -0.6455450596740127 -0.6455450596740127 -0.6455450596740127 -0.6206968567392586 -0.6206968567392586 -0.6206968567392586 0.1664565733026757 
0.1664565733026757 0.1664565733026757 0.1465017395765567 0.1465017395765567 0.1465017395765567 -0.1033988127081317 -0.1033988127081317 -0.1033988127081317 -0.142774497406841 
-0.142774497406841 -0.142774497406841 0.07708695559596071 0.07708695559596071 0.07708695559596071 0.07390178961506674 0.07390178961506674 0.07390178961506674 -0.8361307454478024 
-0.8361307454478024 -0.8361307454478024 -0.8335599121468348 -0.8335599121468348 -0.8335599121468348 0.9239742721027291 0.9239742721027291 0.9239742721027291 0.912174877314457 
0.912174877314457 0.912174877314457 0.2168379243986895 0.2168379243986895 0.2168379243986895 0.1831006223852827 0.1831006223852827 0.1831006223852827 -0.4925143759741187 
-0.4925143759741187 -0.4925143759741187 -0.5197608158542535 -0.5197608158542535 -0.5197608158542535 0.08460083430253976 0.08460083430253976 0.08460083430253976 0.06212451703062911 
0.06212451703062911 0.06212451703062911 0.08859251922490766 0.08859251922490766 0.08859251922490766 0.09088952832806912 0.09088952832806912 0.09088952832806912 0.4176659122307859 
0.4176659122307859 0.4176659122307859 0.3890448705996127 0.3890448705996127 0.3890448705996127 0.1067147619332714 0.1067147619332714 0.1067147619332714 0.1105030369979736 
0.1105030369979736 0.1105030369979736 -0.2943809182846171 -0.2943809182846171 -0.2943809182846171 -0.2800401933516861 -0.2800401933516861 -0.2800401933516861 -0.7215676600189689 
-0.7215676600189689 -0.7215676600189689 -0.7049273102673964 -0.7049273102673964 -0.7049273102673964 -0.04733350292735142 -0.04733350292735142 -0.04733350292735142 -0.07600747647015997 
-0.07600747647015997 -0.07600747647015997 -0.4811827510525487 -0.4811827510525487 -0.4811827510525487 -0.506733972142479 -0.506733972142479 -0.506733972142479 -0.690982493298373 
-0.690982493298373 -0.690982493298373 -0.6835637367860643 -0.6835637367860643 -0.6835637367860643 -0.06852337745647738 -0.06852337745647738 -0.06852337745647738 -0.08459757179144595 
-0.08459757179144595 -0.08459757179144595 -0.6687329190023761 -0.6687329190023761 -0.6687329190023761 -0.6927748649497572 -0.6927748649497572 -0.6927748649497572 -0.314876284600892 
-0.314876284600892 -0.314876284600892 -0.3194328890850133 -0.3194328890850133 -0.3194328890850133 0.8129951261146681 0.8129951261146681 0.8129951261146681 0.8059318069789665 
0.8059318069789665 0.8059318069789665 0.8017222337094189 0.8017222337094189 0.8017222337094189 0.8293696522528273 0.8293696522528273 0.8293696522528273 -0.773898413926932 
-0.773898413926932 -0.773898413926932 -0.775758157034351 -0.775758157034351 -0.775758157034351 -0.7548498259382691 -0.7548498259382691 -0.7548498259382691 0.9441963417909867 
0.9441963417909867 0.9441963417909867 0.9460598083992995 0.9460598083992995 0.9460598083992995 0.9419207644213744 0.9419207644213744 0.9419207644213744 0.9406236402054173 
0.9406236402054173 0.9406236402054173 -0.1845757637509469 -0.1845757637509469 -0.1845757637509469 -0.1950995255960268 -0.1950995255960268 -0.1950995255960268 -0.203139956380051 
-0.203139956380051 -0.203139956380051 0.4317549244042783 0.4317549244042783 0.4317549244042783 0.418786538455178 0.418786538455178 0.418786538455178 0.4223625843846657 
0.4223625843846657 0.4223625843846657 0.497165736566952 0.497165736566952 0.497165736566952 0.4993279682171737 0.4993279682171737 0.4993279682171737 0.5104500801865641 
0.5104500801865641 0.5104500801865641 -0.3567313696996942 -0.3567313696996942 -0.3567313696996942 -0.3647546868980487 -0.3647546868980487 -0.3647546868980487 -0.3732854403015043 
-0.3732854403015043 -0.3732854403015043 -0.5176982978224594 -0.5176982978224594 -0.5176982978224594 -0.5041116357258819 -0.5041116357258819 -0.5041116357258819 -0.5097201955215603 
-0.5097201955215603 -0.5097201955215603 -0.131237954339836 -0.131237954339836 -0.131237954339836 -0.1238171166414347 -0.1238171166414347 -0.1238171166414347 -0.1175226546152463 
-0.1175226546152463 -0.1175226546152463 0.1067926385187475 0.1067926385187475 0.1067926385187475 0.08792516065972808 0.08792516065972808 0.08792516065972808 0.08655746284604134 
0.08655746284604134 0.08655746284604134 -0.4883539005243122 -0.4883539005243122 -0.4883539005243122 -0.4749202279099516 -0.4749202279099516 -0.4749202279099516 -0.4644311652246842 
-0.4644311652246842 -0.4644311652246842 -0.1736797285745268 -0.1736797285745268 -0.1736797285745268 -0.1691116101733202 -0.1691116101733202 -0.1691116101733202 -0.1474113343704893 
-0.1474113343704893 -0.1474113343704893 -0.7469456628094721 -0.7469456628094721 -0.7469456628094721 -0.7452267044513716 -0.7452267044513716 -0.7452267044513716 -0.2786732142680096 
-0.2786732142680096 -0.2786732142680096 -0.2598145411723891 -0.2598145411723891 -0.2598145411723891 -0.2590540861642878 -0.2590540861642878 -0.2590540861642878 -0.06483922804300568 
-0.06483922804300568 -0.06483922804300568 -0.0691270944816833 -0.0691270944816833 -0.0691270944816833 -0.06919332819597786 -0.06919332819597786 -0.06919332819597786 0.5423556784436778 
0.5423556784436778 0.5423556784436778 0.5490329159005047 0.5490329159005047 0.5490329159005047 0.5383923578336764 0.5383923578336764 0.5383923578336764 -0.2402196421978028 
-0.2402196421978028 -0.2402196421978028 -0.2465462548490054 -0.2465462548490054 -0.2465462548490054 -0.2612288225966973 -0.2612288225966973 -0.2612288225966973 -0.4365718721285592 
-0.4365718721285592 -0.4365718721285592 -0.4272755250030187 -0.4272755250030187 -0.4272755250030187 -0.4152403011994342 -0.4152403011994342 -0.4152403011994342 0.06217809998146355 
0.06217809998146355 0.06217809998146355 0.05414994605342422 0.05414994605342422 0.05414994605342422 0.04964048490443327 0.04964048490443327 0.04964048490443327 0.08179427808288939 
0.08179427808288939 0.08179427808288939 0.08741417511842943 0.08741417511842943 0.08741417511842943 -0.05869186367278031 -0.05869186367278031 -0.05869186367278031 -0.05028169199229597 
-0.05028169199229597 -0.05028169199229597 -0.6580475873751174 -0.6580475873751174 -0.6580475873751174 -0.666304711379365 -0.666304711379365 -0.666304711379365 0.1894967530372388 
0.1894967530372388 0.1894967530372388 0.1822133849691777 0.1822133849691777 0.1822133849691777 -0.1983776484411301 -0.1983776484411301 -0.1983776484411301 -0.2108006395191986 
-0.2108006395191986 -0.2108006395191986 -0.5337541211161817 -0.5337541211161817 -0.5337541211161817 -0.5200589746975157 -0.5200589746975157 -0.5200589746975157 0.4381320171200152 
0.4381320171200152 0.4381320171200152 0.4617276282672478 0.4617276282672478 0.4617276282672478 -0.03756139291250553 -0.03756139291250553 -0.03756139291250553 -0.03186632349464171 
-0.03186632349464171 -0.03186632349464171 0.4027041147185558 0.4027041147185558 0.4027041147185558 0.4225876788464945 0.4225876788464945 0.4225876788464945 -0.298674358446104 
-0.298674358446104 -0.298674358446104 -0.292675843628654 -0.292675843628654 -0.292675843628654 -0.303595864045244 -0.303595864045244 -0.303595864045244 -0.2801297524740232 
-0.2801297524740232 -0.2801297524740232 -0.8180834449315879 -0.8180834449315879 -0.8180834449315879 -0.8292098569548292 -0.8292098569548292 -0.8292098569548292 0.7705845598159633 
0.7705845598159633 0.7705845598159633 0.7733007974603665 0.7733007974603665 0.7733007974603665 0.5805666298735084 0.5805666298735084 0.5805666298735084 0.6007930178122572 
0.6007930178122572 0.6007930178122572 0.2310404840955558 0.2310404840955558 0.2310404840955558 0.2225796761292639 0.2225796761292639 0.2225796761292639 -0.3662281516903291 
-0.3662281516903291 -0.3662281516903291 -0.3824698744733338 -0.3824698744733338 -0.3824698744733338 0.05095332550114498 0.05095332550114498 0.05095332550114498 0.03886312392407957 
0.03886312392407957 0.03886312392407957 0.1690441963059768 0.1690441963059768 0.1690441963059768 0.1413937724313484 0.1413937724313484 0.1413937724313484 0.09827324498157371 
0.09827324498157371 0.09827324498157371 0.09296249421816077 0.09296249421816077 0.09296249421816077 0.02112724370367617 0.02112724370367617 0.02112724370367617 0.01766223837682112 
0.01766223837682112 0.01766223837682112 -0.3496463707961724 -0.3496463707961724 -0.3496463707961724 -0.3705518638532015 -0.3705518638532015 -0.3705518638532015 0.24815629981165 
0.24815629981165 0.24815629981165 0.2295889473845925 0.2295889473845925 0.2295889473845925 0.9262509054266617 0.9262509054266617 0.9262509054266617 0.9330411189287866 
0.9330411189287866 0.9330411189287866 0.07997586127677239 0.07997586127677239 0.07997586127677239 0.07202431527504073 0.07202431527504073 0.07202431527504073 0.2260760315745531 
0.2260760315745531 0.2260760315745531 0.220636318523708 0.220636318523708 0.220636318523708 -0.04192390043397199 -0.04192390043397199 -0.04192390043397199 -0.02613101783716471 
-0.02613101783716471 -0.02613101783716471 -0.8522483943012072 -0.8522483943012072 -0.8522483943012072 -0.8515409279699392 -0.8515409279699392 -0.8515409279699392 0.2075970396843662 
0.2075970396843662 0.2075970396843662 0.2140413308431725 0.2140413308431725 0.2140413308431725 -0.1371294411756349 -0.1371294411756349 -0.1371294411756349 -0.1275264731672097 
-0.1275264731672097 -0.1275264731672097 0.08748366772615421 0.08748366772615421 0.08748366772615421 0.09947645618100427 0.09947645618100427 0.09947645618100427 -0.1837558511610736 
-0.1837558511610736 -0.1837558511610736 -0.1687419163297235 -0.1687419163297235 -0.1687419163297235 0.0360341613899223 0.0360341613899223 0.0360341613899223 0.02891342906303336 
0.02891342906303336 0.02891342906303336 0.7731453311875645 0.7731453311875645 0.7731453311875645 0.7791470627673288 0.7791470627673288 0.7791470627673288 -0.7069278533837121 
-0.7069278533837121 -0.7069278533837121 -0.6769853739088704 -0.6769853739088704 -0.6769853739088704 -0.602983971988077 -0.602983971988077 -0.602983971988077 -0.5999371192527294 
-0.5999371192527294 -0.5999371192527294 0.7752493224238892 0.7752493224238892 0.7752493224238892 0.7693890000422644 0.7693890000422644 0.7693890000422644 -0.59073531095692 
-0.59073531095692 -0.59073531095692 -0.5796227136756034 -0.5796227136756034 -0.5796227136756034 0.04616531356174831 0.04616531356174831 0.04616531356174831 0.06121517440784364 
0.06121517440784364 0.06121517440784364 -0.1417417165416791 -0.1417417165416791 -0.1417417165416791 -0.1390442868657552 -0.1390442868657552 -0.1390442868657552 -0.2174981522623694 
-0.2174981522623694 -0.2174981522623694 -0.227210736069958 -0.227210736069958 -0.227210736069958 -0.1852585224558015 -0.1852585224558015 -0.1852585224558015 -0.1734307794410531 
-0.1734307794410531 -0.1734307794410531 -0.1066723770836619 -0.1066723770836619 -0.1066723770836619 -0.125108015261206 -0.125108015261206 -0.125108015261206 0.7581499004936277 
0.7581499004936277 0.7581499004936277 0.7503358503926996 0.7503358503926996 0.7503358503926996 -0.8376120261545599 -0.8376120261545599 -0.8376120261545599 -0.8283411185537647 
-0.8283411185537647 -0.8283411185537647 -0.3830050635769289 -0.3830050635769289 -0.3830050635769289 -0.3707060764112801 -0.3707060764112801 -0.3707060764112801 0.2246758577516885 
0.2246758577516885 0.2246758577516885 0.2267345537292011 0.2267345537292011 0.2267345537292011 -0.5455364430099356 -0.5455364430099356 -0.5455364430099356 -0.555439968115951 
-0.555439968115951 -0.555439968115951 -0.4546955840862803 -0.4546955840862803 -0.4546955840862803 -0.4362961507166195 -0.4362961507166195 -0.4362961507166195 0.3001343217915501 
0.3001343217915501 0.3001343217915501 0.2722871739009333 0.2722871739009333 0.2722871739009333 -0.6075837762210892 -0.6075837762210892 -0.6075837762210892 -0.605205028741323 
-0.605205028741323 -0.605205028741323 -0.9339794629121744 -0.9339794629121744 -0.9339794629121744 -0.940444481672404 -0.940444481672404 -0.940444481672404 -0.1354028356252404 
-0.1354028356252404 -0.1354028356252404 -0.1368146006730719 -0.1368146006730719 -0.1368146006730719 0.9076469280501498 0.9076469280501498 0.9076469280501498 0.9188892990667559 
0.9188892990667559 0.9188892990667559 0.2970491987976794 0.2970491987976794 0.2970491987976794 0.2867537961111046 0.2867537961111046 0.2867537961111046 -0.459784840088575 
-0.459784840088575 -0.459784840088575 -0.4717589256941341 -0.4717589256941341 -0.4717589256941341 0.05850402916306108 0.05850402916306108 0.05850402916306108 0.05944373996262289 
0.05944373996262289 0.05944373996262289 -0.1118743298047292 -0.1118743298047292 -0.1118743298047292 -0.1052235574527877 -0.1052235574527877 -0.1052235574527877 0.06980687604745525 
0.06980687604745525 0.06980687604745525 0.07084088813915157 0.07084088813915157 0.07084088813915157 -0.02252677175791074 -0.02252677175791074 -0.02252677175791074 -0.02468628784153108 
-0.02468628784153108 -0.02468628784153108 0.214013399731013 0.214013399731013 0.214013399731013 0.22740593083226 0.22740593083226 0.22740593083226 0.1905297848053486 
0.1905297848053486 0.1905297848053486 0.1807274145097632 0.1807274145097632 0.1807274145097632 0.4503408009297531 0.4503408009297531 0.4503408009297531 0.4396043349291889 
0.4396043349291889 0.4396043349291889 0.6272256311838778 0.6272256311838778 0.6272256311838778 0.617504164296639 0.617504164296639 0.617504164296639 -0.322925705200949 
-0.322925705200949 -0.322925705200949 -0.3320574706630267 -0.3320574706630267 -0.3320574706630267 -0.3493068705133958 -0.3493068705133958 -0.3493068705133958 -0.3596541566101188 
-0.3596541566101188 -0.3596541566101188 -0.4525427795134916 -0.4525427795134916 -0.4525427795134916 -0.4343735818818711 -0.4343735818818711 -0.4343735818818711 -0.02925338594069572 
-0.02925338594069572 -0.02925338594069572 -0.03721323161384182 -0.03721323161384182 -0.03721323161384182 -0.5926200805520926 -0.5926200805520926 -0.5926200805520926 -0.6049250551564953 
-0.6049250551564953 -0.6049250551564953 0.3502506915186184 0.3502506915186184 0.3502506915186184 0.3481380347537904 0.3481380347537904 0.3481380347537904 -0.6875963513196048 
-0.6875963513196048 -0.6875963513196048 -0.6962773984338868 -0.6962773984338868 -0.6962773984338868 -0.368387925063611 -0.368387925063611 -0.368387925063611 -0.3794323082363418 
-0.3794323082363418 -0.3794323082363418 -0.9046495848003433 -0.9046495848003433 -0.9046495848003433 -0.8991858036043772 -0.8991858036043772 -0.8991858036043772 -0.1744899707048088 
-0.1744899707048088 -0.1744899707048088 -0.175736601160294 -0.175736601160294 -0.175736601160294 -0.2679366055920797 -0.2679366055920797 -0.2679366055920797 -0.2669433928928592 
-0.2669433928928592 -0.2669433928928592 0.1315410384127723 0.1315410384127723 0.1315410384127723 0.1229306738133426 0.1229306738133426 0.1229306738133426 -0.05513780000404557 
-0.05513780000404557 -0.05513780000404557 -0.05916984095606277 -0.05916984095606277 -0.05916984095606277 -0.02510026816938078 -0.02510026816938078 -0.02510026816938078 -0.03694261420075847 
-0.03694261420075847 -0.03694261420075847 0.01555535900561832 0.01555535900561832 0.01555535900561832 0.01252534952981317 0.01252534952981317 0.01252534952981317 -0.1047673968810338 
-0.1047673968810338 -0.1047673968810338 -0.09042390449807683 -0.09042390449807683 -0.09042390449807683 0.3220454535078796 0.3220454535078796 0.3220454535078796 0.3356227122827202 
0.3356227122827202 0.3356227122827202 -0.08887676908851599 -0.08887676908851599 -0.08887676908851599 -0.09587197291473232 -0.09587197291473232 -0.09587197291473232 0.1835485583865538 
0.1835485583865538 0.1835485583865538 0.1878938654054873 0.1878938654054873 0.1878938654054873 -0.9639454583552249 -0.9639454583552249 -0.9639454583552249 -0.9609471240764427 
-0.9609471240764427 -0.9609471240764427 -0.3345773603762734 -0.3345773603762734 -0.3345773603762734 -0.3664385425891754 -0.3664385425891754 -0.3664385425891754 0.0529581944024617 
0.0529581944024617 0.0529581944024617 0.06845916143210704 0.06845916143210704 0.06845916143210704 -0.1281713467613043 -0.1281713467613043 -0.1281713467613043 -0.135506855689014 
-0.135506855689014 -0.135506855689014 -0.7953491592027886 -0.7953491592027886 -0.7953491592027886 -0.8025234634029111 -0.8025234634029111 -0.8025234634029111 -0.1398644944553114 
-0.1398644944553114 -0.1398644944553114 -0.1292234464708955 -0.1292234464708955 -0.1292234464708955 -0.5879579808346951 -0.5879579808346951 -0.5879579808346951 -0.5939404621192271 
-0.5939404621192271 -0.5939404621192271 -0.4074122009322049 -0.4074122009322049 -0.4074122009322049 -0.4203302625333438 -0.4203302625333438 -0.4203302625333438 0.1511838858019157 
0.1511838858019157 0.1511838858019157 0.1409203963757911 0.1409203963757911 0.1409203963757911 -0.1143985694244513 -0.1143985694244513 -0.1143985694244513 -0.1334754685255458 
-0.1334754685255458 -0.1334754685255458 0.325975429056707 0.325975429056707 0.325975429056707 0.336358645638476 0.336358645638476 0.336358645638476 0.3142904814270536 
0.3142904814270536 0.3142904814270536 0.3184982929233155 0.3184982929233155 0.3184982929233155 0.8892693987694225 0.8892693987694225 0.8892693987694225 0.8914344651357574 
0.8914344651357574 0.8914344651357574 0.2232787928854401 0.2232787928854401 0.2232787928854401 0.2368970781264835 0.2368970781264835 0.2368970781264835 -0.4291278956810339 
-0.4291278956810339 -0.4291278956810339 -0.4204210603937297 -0.4204210603937297 -0.4204210603937297 -0.1011292614872437 -0.1011292614872437 -0.1011292614872437 -0.09736087411608331 