Title = Triangle150
FileType = Solution
Variables = q
Zone T = Triangle150
ZoneType = FETriangle
Nodes = 212082
Elements = 70694
DataPacking = Block
StrandID = 15
SolutionTime = 1.4
-0.195995414224654 -0.195995414224654 -0.195995414224654 -0.2107409162174681 -0.2107409162174681 -0.2107409162174681 -0.2110811786658373 -0.2110811786658373 -0.2110811786658373 -0.1250554411598921 
-0.1250554411598921 -0.1250554411598921 -0.1213333801949624 -0.1213333801949624 -0.1213333801949624 -0.13131837308355 -0.13131837308355 -0.13131837308355 -0.02693754206726043 
-0.02693754206726043 -0.02693754206726043 -0.02240425268563221 -0.02240425268563221 -0.02240425268563221 -0.01834538072062516 -0.01834538072062516 -0.01834538072062516 0.06900380608590061 
0.06900380608590061 0.06900380608590061 0.0628580807160192 0.0628580807160192 0.0628580807160192 0.04879197053740145 0.04879197053740145 0.04879197053740145 0.470720665230944 
0.470720665230944 0.470720665230944 0.4912366710688867 0.4912366710688867 0.4912366710688867 0.4913372891037862 0.4913372891037862 0.4913372891037862 0.1655921847197277 
0.1655921847197277 0.1655921847197277 0.1753347357642492 0.1753347357642492 0.1753347357642492 0.1852316720841477 0.1852316720841477 0.1852316720841477 0.2287710448500385 
0.2287710448500385 0.2287710448500385 0.2112586366433604 0.2112586366433604 0.2112586366433604 -0.688147077618509 -0.688147077618509 -0.688147077618509 -0.67989051473039 
-0.67989051473039 -0.67989051473039 -0.4145860362476101 -0.4145860362476101 -0.4145860362476101 -0.3899199776740919 -0.3899199776740919 -0.3899199776740919 -0.1803505357185669 
-0.1803505357185669 -0.1803505357185669 -0.1858611827372648 -0.1858611827372648 -0.1858611827372648 0.6793123143558357 0.6793123143558357 0.6793123143558357 0.6760445979407629 
0.6760445979407629 0.6760445979407629 -0.7153705038741358 -0.7153705038741358 -0.7153705038741358 -0.7106732575814017 -0.7106732575814017 -0.7106732575814017 0.1306186234283461 
0.1306186234283461 0.1306186234283461 0.1335947542820712 0.1335947542820712 0.1335947542820712 0.6034240917526268 0.6034240917526268 0.6034240917526268 0.6155618615391144 
0.6155618615391144 0.6155618615391144 0.5830546672125627 0.5830546672125627 0.5830546672125627 0.5858197850777305 0.5858197850777305 0.5858197850777305 0.07993687982269909 
0.07993687982269909 0.07993687982269909 0.05420644382489465 0.05420644382489465 0.05420644382489465 -0.6468180849741093 -0.6468180849741093 -0.6468180849741093 -0.6431575375402125 
-0.6431575375402125 -0.6431575375402125 -0.3271076839804326 -0.3271076839804326 -0.3271076839804326 -0.3242971723330786 -0.3242971723330786 -0.3242971723330786 -0.2508062147621889 
-0.2508062147621889 -0.2508062147621889 -0.245934316889722 -0.245934316889722 -0.245934316889722 0.1864925395651978 0.1864925395651978 0.1864925395651978 0.1783448273112614 
0.1783448273112614 0.1783448273112614 0.2887091290647499 0.2887091290647499 0.2887091290647499 0.2787318363412051 0.2787318363412051 0.2787318363412051 -0.2583895757694605 
-0.2583895757694605 -0.2583895757694605 -0.2793171847174893 -0.2793171847174893 -0.2793171847174893 -0.2221347478068154 -0.2221347478068154 -0.2221347478068154 -0.2387391262603397 
-0.2387391262603397 -0.2387391262603397 -0.6424351579788863 -0.6424351579788863 -0.6424351579788863 -0.6557073058513354 -0.6557073058513354 -0.6557073058513354 -0.3756910407159287 
-0.3756910407159287 -0.3756910407159287 -0.386562284392553 -0.386562284392553 -0.386562284392553 -0.1676345289576932 -0.1676345289576932 -0.1676345289576932 -0.1520160761500451 
-0.1520160761500451 -0.1520160761500451 0.4697184994975623 0.4697184994975623 0.4697184994975623 0.4390770347457236 0.4390770347457236 0.4390770347457236 0.7220270681331696 
0.7220270681331696 0.7220270681331696 0.7202814441619541 0.7202814441619541 0.7202814441619541 0.1134082312657348 0.1134082312657348 0.1134082312657348 0.1181705936649019 
0.1181705936649019 0.1181705936649019 -0.7503481692161662 -0.7503481692161662 -0.7503481692161662 -0.7551100940207127 -0.7551100940207127 -0.7551100940207127 -0.8837413425708331 
-0.8837413425708331 -0.8837413425708331 -0.881046862491738 -0.881046862491738 -0.881046862491738 -0.06056259526473448 -0.06056259526473448 -0.06056259526473448 -0.05730017755732664 
-0.05730017755732664 -0.05730017755732664 0.2947611727981878 0.2947611727981878 0.2947611727981878 0.298456980444884 0.298456980444884 0.298456980444884 -0.802089208935768 
-0.802089208935768 -0.802089208935768 -0.8067107241269184 -0.8067107241269184 -0.8067107241269184 -0.5844942868936691 -0.5844942868936691 -0.5844942868936691 -0.5923100347704802 
-0.5923100347704802 -0.5923100347704802 0.2576430456060772 0.2576430456060772 0.2576430456060772 0.253368455663736 0.253368455663736 0.253368455663736 -0.268737986950196 
-0.268737986950196 -0.268737986950196 -0.2742735372846556 -0.2742735372846556 -0.2742735372846556 0.8409942200331458 0.8409942200331458 0.8409942200331458 0.8406513277903891 
0.8406513277903891 0.8406513277903891 -0.4004644150153956 -0.4004644150153956 -0.4004644150153956 -0.3858415110089384 -0.3858415110089384 -0.3858415110089384 0.4574469728676769 
0.4574469728676769 0.4574469728676769 0.4516552328093932 0.4516552328093932 0.4516552328093932 0.7518791466994821 0.7518791466994821 0.7518791466994821 0.7578217530961688 
0.7578217530961688 0.7578217530961688 -0.4358329122190759 -0.4358329122190759 -0.4358329122190759 -0.4261546785866206 -0.4261546785866206 -0.4261546785866206 -0.689489473335943 
-0.689489473335943 -0.689489473335943 -0.6808215112261806 -0.6808215112261806 -0.6808215112261806 -0.2245067035124102 -0.2245067035124102 -0.2245067035124102 -0.3505578793458824 
-0.3505578793458824 -0.3505578793458824 -0.3416037710874714 -0.3416037710874714 -0.3416037710874714 0.2433466602972799 0.2433466602972799 0.2433466602972799 0.2511701776909464 
0.2511701776909464 0.2511701776909464 0.5612260834618714 0.5612260834618714 0.5612260834618714 0.5580630006465104 0.5580630006465104 0.5580630006465104 0.1385719181297786 
0.1385719181297786 0.1385719181297786 0.1289520991598903 0.1289520991598903 0.1289520991598903 0.1579494947201017 0.1579494947201017 0.1579494947201017 0.163726919207337 
0.163726919207337 0.163726919207337 0.1951220421110555 0.1951220421110555 0.1951220421110555 0.4429246331331571 0.4429246331331571 0.4429246331331571 -0.07668221416701551 
-0.07668221416701551 -0.07668221416701551 -0.02295188193773941 -0.02295188193773941 -0.02295188193773941 -0.5007603901869004 -0.5007603901869004 -0.5007603901869004 0.1708988748989178 
0.1708988748989178 0.1708988748989178 0.6573355462649321 0.6573355462649321 0.6573355462649321 0.6609594904157517 0.6609594904157517 0.6609594904157517 -0.4073938555373851 
-0.4073938555373851 -0.4073938555373851 0.3216525874825103 0.3216525874825103 0.3216525874825103 -0.3977680055302114 -0.3977680055302114 -0.3977680055302114 0.00567450419840506 
0.00567450419840506 0.00567450419840506 -0.01218256724408991 -0.01218256724408991 -0.01218256724408991 -0.1431676685837414 -0.1431676685837414 -0.1431676685837414 -0.1397781473666695 
-0.1397781473666695 -0.1397781473666695 -0.2331613263017393 -0.2331613263017393 -0.2331613263017393 -0.2319964708695028 -0.2319964708695028 -0.2319964708695028 -0.1344184265256017 
-0.1344184265256017 -0.1344184265256017 -0.1427610730070805 -0.1427610730070805 -0.1427610730070805 0.044312899305057 0.044312899305057 0.044312899305057 0.04688465103692552 
0.04688465103692552 0.04688465103692552 -0.2437759389878976 -0.2437759389878976 -0.2437759389878976 -0.2499454639844446 -0.2499454639844446 -0.2499454639844446 0.35410796196379 
0.35410796196379 0.35410796196379 0.381303423549374 0.381303423549374 0.381303423549374 0.04077715272486964 0.04077715272486964 0.04077715272486964 0.03970364128790854 
0.03970364128790854 0.03970364128790854 -0.02372954623446783 -0.02372954623446783 -0.02372954623446783 -0.03789442597306057 -0.03789442597306057 -0.03789442597306057 -0.3727364273509947 
-0.3727364273509947 -0.3727364273509947 -0.3813703138305802 -0.3813703138305802 -0.3813703138305802 0.3526444745946439 0.3526444745946439 0.3526444745946439 0.3708803181936137 
0.3708803181936137 0.3708803181936137 -0.7351625425415645 -0.7351625425415645 -0.7351625425415645 -0.7431868602113409 -0.7431868602113409 -0.7431868602113409 0.1507374878268274 
0.1507374878268274 0.1507374878268274 0.128628222385562 0.128628222385562 0.128628222385562 0.6172545836758538 0.6172545836758538 0.6172545836758538 0.5889167114171087 
0.5889167114171087 0.5889167114171087 0.3225382250543666 0.3225382250543666 0.3225382250543666 0.3049697015509522 0.3049697015509522 0.3049697015509522 0.6257155389106952 
0.6257155389106952 0.6257155389106952 0.6434111161908787 0.6434111161908787 0.6434111161908787 0.7655878192378111 0.7655878192378111 0.7655878192378111 0.7791907290955276 
0.7791907290955276 0.7791907290955276 -0.1346194879182179 -0.1346194879182179 -0.1346194879182179 -0.1570049187724802 -0.1570049187724802 -0.1570049187724802 0.1468660854592571 
0.1468660854592571 0.1468660854592571 0.1396330228635499 0.1396330228635499 0.1396330228635499 -0.4734895641608519 -0.4734895641608519 -0.4734895641608519 -0.46942128697317 
-0.46942128697317 -0.46942128697317 0.0399602194579924 0.0399602194579924 0.0399602194579924 0.02987047251909802 0.02987047251909802 0.02987047251909802 -0.04752909659185121 
-0.04752909659185121 -0.04752909659185121 -0.04740942587409061 -0.04740942587409061 -0.04740942587409061 0.1171079415527538 0.1171079415527538 0.1171079415527538 0.1106789443547148 
0.1106789443547148 0.1106789443547148 0.06781626927895716 0.06781626927895716 0.06781626927895716 0.06745639697758801 0.06745639697758801 0.06745639697758801 0.1069222465967199 
0.1069222465967199 0.1069222465967199 0.136498191430804 0.136498191430804 0.136498191430804 0.6564719633870845 0.6564719633870845 0.6564719633870845 0.6427095249263021 
0.6427095249263021 0.6427095249263021 -0.06817591316474622 -0.06817591316474622 -0.06817591316474622 -0.0700859247874121 -0.0700859247874121 -0.0700859247874121 -0.2742707042892811 
-0.2742707042892811 -0.2742707042892811 -0.2567195734896858 -0.2567195734896858 -0.2567195734896858 -0.2333943389736506 -0.2333943389736506 -0.2333943389736506 -0.2525399983365667 
-0.2525399983365667 -0.2525399983365667 0.1326120141610799 0.1326120141610799 0.1326120141610799 0.1422001698052775 0.1422001698052775 0.1422001698052775 0.3231111137630161 
0.3231111137630161 0.3231111137630161 0.3080367151360881 0.3080367151360881 0.3080367151360881 -0.4746998940415113 -0.4746998940415113 -0.4746998940415113 -0.4832353663899711 
-0.4832353663899711 -0.4832353663899711 -0.1188193643923664 -0.1188193643923664 -0.1188193643923664 -0.1435172488466832 -0.1435172488466832 -0.1435172488466832 -0.1867938456990093 
-0.1867938456990093 -0.1867938456990093 -0.1770810150079345 -0.1770810150079345 -0.1770810150079345 -0.7245578287578481 -0.7245578287578481 -0.7245578287578481 -0.7057260177217903 
-0.7057260177217903 -0.7057260177217903 0.02364063362923318 0.02364063362923318 0.02364063362923318 0.0110978340992868 0.0110978340992868 0.0110978340992868 0.5929804966966085 
0.5929804966966085 0.5929804966966085 0.577108415932566 0.577108415932566 0.577108415932566 0.1248221213267592 0.1248221213267592 0.1248221213267592 0.1022988435383526 
0.1022988435383526 0.1022988435383526 -0.1298801911147983 -0.1298801911147983 -0.1298801911147983 -0.1440735223500125 -0.1440735223500125 -0.1440735223500125 -0.001374634163588652 
-0.001374634163588652 -0.001374634163588652 -0.00723626379729808 -0.00723626379729808 -0.00723626379729808 0.5912648680586821 0.5912648680586821 0.5912648680586821 0.613564920115697 
0.613564920115697 0.613564920115697 0.1112137516346878 0.1112137516346878 0.1112137516346878 0.09357032735802839 0.09357032735802839 0.09357032735802839 0.1117472279933551 
0.1117472279933551 0.1117472279933551 0.1396731015241177 0.1396731015241177 0.1396731015241177 0.1182570066493987 0.1182570066493987 0.1182570066493987 0.1264470172730146 
0.1264470172730146 0.1264470172730146 0.1390528107042633 0.1390528107042633 0.1390528107042633 0.1631425470234521 0.1631425470234521 0.1631425470234521 -0.09601561312213942 
-0.09601561312213942 -0.09601561312213942 -0.104440002963952 -0.104440002963952 -0.104440002963952 0.646622592538136 0.646622592538136 0.646622592538136 0.6598931811656211 
0.6598931811656211 0.6598931811656211 0.06793776189551626 0.06793776189551626 0.06793776189551626 0.0546741372329729 0.0546741372329729 0.0546741372329729 0.2820887629887722 
0.2820887629887722 0.2820887629887722 0.3046221053295941 0.3046221053295941 0.3046221053295941 0.7113990910117891 0.7113990910117891 0.7113990910117891 0.7236754000572252 
0.7236754000572252 0.7236754000572252 -0.5956428099395066 -0.5956428099395066 -0.5956428099395066 -0.5816658371535238 -0.5816658371535238 -0.5816658371535238 0.5925764541551022 
0.5925764541551022 0.5925764541551022 0.5842699504034661 0.5842699504034661 0.5842699504034661 -0.04126816934143542 -0.04126816934143542 -0.04126816934143542 -0.02688146285184746 
-0.02688146285184746 -0.02688146285184746 -0.8001147800528325 -0.8001147800528325 -0.8001147800528325 -0.7837330432188129 -0.7837330432188129 -0.7837330432188129 0.7076421379407165 
0.7076421379407165 0.7076421379407165 0.69624883570116 0.69624883570116 0.69624883570116 -0.2937927881528557 -0.2937927881528557 -0.2937927881528557 -0.2847306359855973 
-0.2847306359855973 -0.2847306359855973 0.6611595134311565 0.6611595134311565 0.6611595134311565 0.6418258936727611 0.6418258936727611 0.6418258936727611 0.1375417762441355 
0.1375417762441355 0.1375417762441355 0.1334997136737577 0.1334997136737577 0.1334997136737577 -0.3329405819712788 -0.3329405819712788 -0.3329405819712788 -0.3528118316736079 
-0.3528118316736079 -0.3528118316736079 0.106475145593796 0.106475145593796 0.106475145593796 0.1127299050353159 0.1127299050353159 0.1127299050353159 0.2559322578534666 
0.2559322578534666 0.2559322578534666 0.2588077994890803 0.2588077994890803 0.2588077994890803 -0.7270808250208132 -0.7270808250208132 -0.7270808250208132 -0.7308684658118436 
-0.7308684658118436 -0.7308684658118436 0.03330795901542932 0.03330795901542932 0.03330795901542932 0.02611858058366155 0.02611858058366155 0.02611858058366155 0.03134981935381348 
0.03134981935381348 0.03134981935381348 0.03442419183112232 0.03442419183112232 0.03442419183112232 0.4729060724800789 0.4729060724800789 0.4729060724800789 0.4695753397489578 
0.4695753397489578 0.4695753397489578 0.4470105343788556 0.4470105343788556 0.4470105343788556 0.4517667721147605 0.4517667721147605 0.4517667721147605 0.6097146709159549 
0.6097146709159549 0.6097146709159549 0.6287742723094984 0.6287742723094984 0.6287742723094984 0.1344158892595441 0.1344158892595441 0.1344158892595441 0.1421701743652575 
0.1421701743652575 0.1421701743652575 0.1539714376878841 0.1539714376878841 0.1539714376878841 0.1235196378458252 0.1235196378458252 0.1235196378458252 0.1612117362977576 
0.1612117362977576 0.1612117362977576 0.1677470891313282 0.1677470891313282 0.1677470891313282 0.1543803424291032 0.1543803424291032 0.1543803424291032 -0.04629904716613262 
-0.04629904716613262 -0.04629904716613262 -0.04969665183233444 -0.04969665183233444 -0.04969665183233444 -0.03938351201378434 -0.03938351201378434 -0.03938351201378434 -0.03764404614001534 
-0.03764404614001534 -0.03764404614001534 -0.4349346289819812 -0.4349346289819812 -0.4349346289819812 -0.4401223686323624 -0.4401223686323624 -0.4401223686323624 -0.4273622537074478 
-0.4273622537074478 -0.4273622537074478 0.009879776936115695 0.009879776936115695 0.009879776936115695 0.007336958783971155 0.007336958783971155 0.007336958783971155 0.0178093582818199 
0.0178093582818199 0.0178093582818199 0.06209861903717966 0.06209861903717966 0.06209861903717966 0.0497124019817564 0.0497124019817564 0.0497124019817564 0.05022415323838399 
0.05022415323838399 0.05022415323838399 0.7151563066533179 0.7151563066533179 0.7151563066533179 0.7122429679913145 0.7122429679913145 0.7122429679913145 0.7087747752796909 
0.7087747752796909 0.7087747752796909 -0.3887843695255521 -0.3887843695255521 -0.3887843695255521 -0.3924278331010017 -0.3924278331010017 -0.3924278331010017 -0.3761361331682284 
-0.3761361331682284 -0.3761361331682284 -0.2175479475910286 -0.2175479475910286 -0.2175479475910286 -0.2317479147796923 -0.2317479147796923 -0.2317479147796923 -0.2325810412100421 
-0.2325810412100421 -0.2325810412100421 0.5778995406423416 0.5778995406423416 0.5778995406423416 0.5808965269556632 0.5808965269556632 0.5808965269556632 0.5876584890389158 
0.5876584890389158 0.5876584890389158 0.03909750086379479 0.03909750086379479 0.03909750086379479 0.03995543552035592 0.03995543552035592 0.03995543552035592 0.03891299489513814 
0.03891299489513814 0.03891299489513814 0.02591576375289611 0.02591576375289611 0.02591576375289611 0.01755833310957801 0.01755833310957801 0.01755833310957801 0.02003819274779522 
0.02003819274779522 0.02003819274779522 0.1456085207258926 0.1456085207258926 0.1456085207258926 0.1411403438023506 0.1411403438023506 0.1411403438023506 -0.4215330150050789 
-0.4215330150050789 -0.4215330150050789 -0.4331201546353365 -0.4331201546353365 -0.4331201546353365 -0.4449103637219836 -0.4449103637219836 -0.4449103637219836 0.6263104052700754 
0.6263104052700754 0.6263104052700754 0.6292888861466124 0.6292888861466124 0.6292888861466124 0.6229432945735492 0.6229432945735492 0.6229432945735492 -0.8254100735036036 
-0.8254100735036036 -0.8254100735036036 -0.8237321231926105 -0.8237321231926105 -0.8237321231926105 -0.8291402934470753 -0.8291402934470753 -0.8291402934470753 0.003428400433918256 
0.003428400433918256 0.003428400433918256 -0.001358063047179291 -0.001358063047179291 -0.001358063047179291 0.02093634330223845 0.02093634330223845 0.02093634330223845 0.843770274686017 
0.843770274686017 0.843770274686017 0.8465046186513596 0.8465046186513596 0.8465046186513596 0.8497963262627987 0.8497963262627987 0.8497963262627987 -0.2930697683096402 
-0.2930697683096402 -0.2930697683096402 -0.2986035797675848 -0.2986035797675848 -0.2986035797675848 -0.2995814603851772 -0.2995814603851772 -0.2995814603851772 0.712667075707758 
0.712667075707758 0.712667075707758 0.7018873901251386 0.7018873901251386 0.7018873901251386 0.1799406577049088 0.1799406577049088 0.1799406577049088 0.1866351162165175 
0.1866351162165175 0.1866351162165175 0.4174483134716581 0.4174483134716581 0.4174483134716581 0.4115181669122338 0.4115181669122338 0.4115181669122338 -0.05507318005739066 
-0.05507318005739066 -0.05507318005739066 -0.06043514785033944 -0.06043514785033944 -0.06043514785033944 -0.4851703618981823 -0.4851703618981823 -0.4851703618981823 -0.4825258234564363 
-0.4825258234564363 -0.4825258234564363 0.7381010646589435 0.7381010646589435 0.7381010646589435 0.7417744144938887 0.7417744144938887 0.7417744144938887 0.04925280892373592 
0.04925280892373592 0.04925280892373592 0.05206168785607316 0.05206168785607316 0.05206168785607316 0.7261275474640534 0.7261275474640534 0.7261275474640534 0.7201954913825541 
0.7201954913825541 0.7201954913825541 -0.1777442227565716 -0.1777442227565716 -0.1777442227565716 -0.2007287288193346 -0.2007287288193346 -0.2007287288193346 -0.6282530848832411 
-0.6282530848832411 -0.6282530848832411 -0.6368091428663523 -0.6368091428663523 -0.6368091428663523 -0.6734659632532443 -0.6734659632532443 -0.6734659632532443 -0.688133883539703 
-0.688133883539703 -0.688133883539703 -0.1242026197462479 -0.1242026197462479 -0.1242026197462479 -0.1043975975790973 -0.1043975975790973 -0.1043975975790973 -0.1831730979786588 
-0.1831730979786588 -0.1831730979786588 -0.1718931541126625 -0.1718931541126625 -0.1718931541126625 0.2647087315063806 0.2647087315063806 0.2647087315063806 0.2443238481888647 
0.2443238481888647 0.2443238481888647 -0.1458593941610798 -0.1458593941610798 -0.1458593941610798 -0.1547895377449144 -0.1547895377449144 -0.1547895377449144 0.08404835714200071 
0.08404835714200071 0.08404835714200071 0.09550118357552417 0.09550118357552417 0.09550118357552417 0.1387941349714859 0.1387941349714859 0.1387941349714859 0.126369915067563 
0.126369915067563 0.126369915067563 -0.2974184342174665 -0.2974184342174665 -0.2974184342174665 -0.2836524119668699 -0.2836524119668699 -0.2836524119668699 -0.2592043486300094 
-0.2592043486300094 -0.2592043486300094 -0.2724249306257361 -0.2724249306257361 -0.2724249306257361 0.3217950695480223 0.3217950695480223 0.3217950695480223 0.3146147676232065 
0.3146147676232065 0.3146147676232065 -0.003731409001852656 -0.003731409001852656 -0.003731409001852656 -0.020289424619251 -0.020289424619251 -0.020289424619251 -0.7771691442755067 
-0.7771691442755067 -0.7771691442755067 -0.7758326926595688 -0.7758326926595688 -0.7758326926595688 -0.04309290615208644 -0.04309290615208644 -0.04309290615208644 -0.04574365287058524 
-0.04574365287058524 -0.04574365287058524 0.2165862181233423 0.2165862181233423 0.2165862181233423 0.2423798391617167 0.2423798391617167 0.2423798391617167 0.1660080011995751 
0.1660080011995751 0.1660080011995751 0.1599561375568313 0.1599561375568313 0.1599561375568313 -0.8284416224312543 -0.8284416224312543 -0.8284416224312543 -0.8335398387379401 
-0.8335398387379401 -0.8335398387379401 0.5755085620363531 0.5755085620363531 0.5755085620363531 0.5667511781081563 0.5667511781081563 0.5667511781081563 -0.6558221366452481 
-0.6558221366452481 -0.6558221366452481 -0.6549567249680214 -0.6549567249680214 -0.6549567249680214 -0.7699725585966993 -0.7699725585966993 -0.7699725585966993 -0.7770638850191413 
-0.7770638850191413 -0.7770638850191413 0.8043128593051043 0.8043128593051043 0.8043128593051043 0.7999507238958953 0.7999507238958953 0.7999507238958953 -0.7252884457525451 
-0.7252884457525451 -0.7252884457525451 -0.7399989528513952 -0.7399989528513952 -0.7399989528513952 0.03899803912256743 0.03899803912256743 0.03899803912256743 0.03352816235111047 
0.03352816235111047 0.03352816235111047 -0.1120075524114925 -0.1120075524114925 -0.1120075524114925 -0.1031289975445984 -0.1031289975445984 -0.1031289975445984 0.1343112130184185 
0.1343112130184185 0.1343112130184185 0.1164620211781293 0.1164620211781293 0.1164620211781293 0.01050059900176863 0.01050059900176863 0.01050059900176863 0.02456031421792246 
0.02456031421792246 0.02456031421792246 -0.3858284090366205 -0.3858284090366205 -0.3858284090366205 -0.3956319311486836 -0.3956319311486836 -0.3956319311486836 0.8027763345628396 
0.8027763345628396 0.8027763345628396 0.809535423766664 0.809535423766664 0.809535423766664 -0.5610910649000197 -0.5610910649000197 -0.5610910649000197 -0.5433120027133023 
-0.5433120027133023 -0.5433120027133023 0.7208474145044856 0.7208474145044856 0.7208474145044856 0.7285705948372666 0.7285705948372666 0.7285705948372666 -0.6729451970449429 
-0.6729451970449429 -0.6729451970449429 -0.6783351156600027 -0.6783351156600027 -0.6783351156600027 0.6460014439988241 0.6460014439988241 0.6460014439988241 0.6426358219391577 
0.6426358219391577 0.6426358219391577 0.6937261115124633 0.6937261115124633 0.6937261115124633 0.6997855304269522 0.6997855304269522 0.6997855304269522 0.1069740897900971 
0.1069740897900971 0.1069740897900971 0.1111011814199638 0.1111011814199638 0.1111011814199638 0.6013946905326006 0.6013946905326006 0.6013946905326006 0.6143899280828307 
0.6143899280828307 0.6143899280828307 0.05550622234239326 0.05550622234239326 0.05550622234239326 0.06516525977117046 0.06516525977117046 0.06516525977117046 0.1314869260077892 
0.1314869260077892 0.1314869260077892 0.1364846143777676 0.1364846143777676 0.1364846143777676 0.8270384817810346 0.8270384817810346 0.8270384817810346 0.8225868417652775 
0.8225868417652775 0.8225868417652775 0.0304350155312618 0.0304350155312618 0.0304350155312618 0.04172432935557675 0.04172432935557675 0.04172432935557675 -0.7842933981525261 
-0.7842933981525261 -0.7842933981525261 -0.7892213547312301 -0.7892213547312301 -0.7892213547312301 0.0668683830898336 0.0668683830898336 0.0668683830898336 0.0632756704962663 
0.0632756704962663 0.0632756704962663 0.125593620991527 0.125593620991527 0.125593620991527 0.1217191846507031 0.1217191846507031 0.1217191846507031 0.02565488845102194 
0.02565488845102194 0.02565488845102194 0.03893675959349592 0.03893675959349592 0.03893675959349592 -0.0382252093469318 -0.0382252093469318 -0.0382252093469318 -0.054620138711661 
-0.054620138711661 -0.054620138711661 -0.8874923754753816 -0.8874923754753816 -0.8874923754753816 -0.8882459118813776 -0.8882459118813776 -0.8882459118813776 -0.1640418292746283 
-0.1640418292746283 -0.1640418292746283 -0.1653068995959327 -0.1653068995959327 -0.1653068995959327 0.3537355704647155 0.3537355704647155 0.3537355704647155 0.3595645173201732 
0.3595645173201732 0.3595645173201732 -0.7809502407012753 -0.7809502407012753 -0.7809502407012753 -0.7864670178392268 -0.7864670178392268 -0.7864670178392268 0.3376389664834934 
0.3376389664834934 0.3376389664834934 0.3435966003953781 0.3435966003953781 0.3435966003953781 0.5823471228501614 0.5823471228501614 0.5823471228501614 0.5866084903810981 
0.5866084903810981 0.5866084903810981 0.6415518014540288 0.6415518014540288 0.6415518014540288 0.6374221571660444 0.6374221571660444 0.6374221571660444 0.7564751219880208 
0.7564751219880208 0.7564751219880208 0.7614389553331937 0.7614389553331937 0.7614389553331937 0.1462432505020259 0.1462432505020259 0.1462432505020259 0.1459130101469922 
0.1459130101469922 0.1459130101469922 -0.4319542484685196 -0.4319542484685196 -0.4319542484685196 -0.4412994091932059 -0.4412994091932059 -0.4412994091932059 0.09314675158935054 
0.09314675158935054 0.09314675158935054 0.0890420903199465 0.0890420903199465 0.0890420903199465 -0.6487700682317203 -0.6487700682317203 -0.6487700682317203 -0.6423364372923888 
-0.6423364372923888 -0.6423364372923888 0.728143360709396 0.728143360709396 0.728143360709396 0.7208202838061741 0.7208202838061741 0.7208202838061741 -0.2894725820403241 
-0.2894725820403241 -0.2894725820403241 -0.28341457567791 -0.28341457567791 -0.28341457567791 -0.2974604252551218 -0.2974604252551218 -0.2974604252551218 -0.2886902461971936 
-0.2886902461971936 -0.2886902461971936 0.2331782985066741 0.2331782985066741 0.2331782985066741 0.2206473504217713 0.2206473504217713 0.2206473504217713 0.3720886448130077 
0.3720886448130077 0.3720886448130077 0.3456533748399832 0.3456533748399832 0.3456533748399832 0.5951911464937557 0.5951911464937557 0.5951911464937557 0.5904923959185699 
0.5904923959185699 0.5904923959185699 -0.02581076830619882 -0.02581076830619882 -0.02581076830619882 -0.03374566525461801 -0.03374566525461801 -0.03374566525461801 -0.7474722988362887 
-0.7474722988362887 -0.7474722988362887 -0.7413043399606064 -0.7413043399606064 -0.7413043399606064 0.7289557690379389 0.7289557690379389 0.7289557690379389 0.7171343037492337 
0.7171343037492337 0.7171343037492337 0.1507655983919829 0.1507655983919829 0.1507655983919829 0.1608454350667345 0.1608454350667345 0.1608454350667345 -0.6939157585500015 
-0.6939157585500015 -0.6939157585500015 -0.6871686422752906 -0.6871686422752906 -0.6871686422752906 -0.4582445488387052 -0.4582445488387052 -0.4582445488387052 -0.4663710903046845 
-0.4663710903046845 -0.4663710903046845 0.3463274292233128 0.3463274292233128 0.3463274292233128 0.336057620103303 0.336057620103303 0.336057620103303 0.7913551164507697 
0.7913551164507697 0.7913551164507697 0.7761837774115938 0.7761837774115938 0.7761837774115938 0.4249917524093194 0.4249917524093194 0.4249917524093194 0.4236786354654059 
0.4236786354654059 0.4236786354654059 -0.8078316667118781 -0.8078316667118781 -0.8078316667118781 -0.8029885356725499 -0.8029885356725499 -0.8029885356725499 -0.5747687076941264 
-0.5747687076941264 -0.5747687076941264 -0.56872053121644 -0.56872053121644 -0.56872053121644 0.1164791474987092 0.1164791474987092 0.1164791474987092 0.107539149864103 
0.107539149864103 0.107539149864103 -0.5953093807877591 -0.5953093807877591 -0.5953093807877591 -0.5688673549176513 -0.5688673549176513 -0.5688673549176513 0.01379625496557085 
0.01379625496557085 0.01379625496557085 -0.006783522561460123 -0.006783522561460123 -0.006783522561460123 -0.2627315518815436 -0.2627315518815436 -0.2627315518815436 -0.2600478380880309 
-0.2600478380880309 -0.2600478380880309 0.6084305042223284 0.6084305042223284 0.6084305042223284 0.5997683837017854 0.5997683837017854 0.5997683837017854 -0.2630502354514577 
-0.2630502354514577 -0.2630502354514577 -0.2756029748685641 -0.2756029748685641 -0.2756029748685641 0.3298907084484156 0.3298907084484156 0.3298907084484156 0.3199397925760323 
0.3199397925760323 0.3199397925760323 0.0006626822997395855 0.0006626822997395855 0.0006626822997395855 0.006213806212541821 0.006213806212541821 0.006213806212541821 0.6510213957070901 
0.6510213957070901 0.6510213957070901 0.6586146545635772 0.6586146545635772 0.6586146545635772 -0.5336182213480356 -0.5336182213480356 -0.5336182213480356 -0.5450841772237395 
-0.5450841772237395 -0.5450841772237395 0.66174666689442 0.66174666689442 0.66174666689442 0.6519292204239417 0.6519292204239417 0.6519292204239417 0.1238652774868385 
0.1238652774868385 0.1238652774868385 0.116718346908933 0.116718346908933 0.116718346908933 -0.00504835610907496 -0.00504835610907496 -0.00504835610907496 -0.01672926719323337 
-0.01672926719323337 -0.01672926719323337 0.5808691861286062 0.5808691861286062 0.5808691861286062 0.5758787944940817 0.5758787944940817 0.5758787944940817 -0.5847193977400995 
-0.5847193977400995 -0.5847193977400995 -0.5935312649994684 -0.5935312649994684 -0.5935312649994684 -0.2067712120505428 -0.2067712120505428 -0.2067712120505428 -0.2005956783350423 
-0.2005956783350423 -0.2005956783350423 0.300828441194344 0.300828441194344 0.300828441194344 0.3127345981111536 0.3127345981111536 0.3127345981111536 -0.1648007578743655 