Title = Triangle150
FileType = Solution
Variables = q
Zone T = Triangle150
ZoneType = FETriangle
Nodes = 212082
Elements = 70694
DataPacking = Block
StrandID = 16
SolutionTime = 1.5
-0.4898778935702616 -0.4898778935702616 -0.4898778935702616 -0.5054653308829479 -0.5054653308829479 -0.5054653308829479 -0.509158375038719 -0.509158375038719 -0.509158375038719 0.1089179287389235 
0.1089179287389235 0.1089179287389235 0.1140610577120105 0.1140610577120105 0.1140610577120105 0.1041873268301163 0.1041873268301163 0.1041873268301163 -0.3844886713749386 
-0.3844886713749386 -0.3844886713749386 -0.3907095617379879 -0.3907095617379879 -0.3907095617379879 -0.3938710254302655 -0.3938710254302655 -0.3938710254302655 0.1780745827182869 
0.1780745827182869 0.1780745827182869 0.17922262556819 0.17922262556819 0.17922262556819 0.1677216145787073 0.1677216145787073 0.1677216145787073 0.2797159943223097 
0.2797159943223097 0.2797159943223097 0.2931279733104538 0.2931279733104538 0.2931279733104538 0.3002054325007671 0.3002054325007671 0.3002054325007671 -0.1436333360141001 
-0.1436333360141001 -0.1436333360141001 -0.1344079666364824 -0.1344079666364824 -0.1344079666364824 -0.1306237831788674 -0.1306237831788674 -0.1306237831788674 0.03188386608451077 
0.03188386608451077 0.03188386608451077 0.02422285857366849 0.02422285857366849 0.02422285857366849 -0.2246961928592594 -0.2246961928592594 -0.2246961928592594 -0.2143082846505164 
-0.2143082846505164 -0.2143082846505164 -0.4087990837682587 -0.4087990837682587 -0.4087990837682587 -0.3916392875887592 -0.3916392875887592 -0.3916392875887592 -0.3347758004981917 
-0.3347758004981917 -0.3347758004981917 -0.335139971479735 -0.335139971479735 -0.335139971479735 0.6693421960655321 0.6693421960655321 0.6693421960655321 0.6771300435824559 
0.6771300435824559 0.6771300435824559 -0.3045609079297089 -0.3045609079297089 -0.3045609079297089 -0.3057663655113108 -0.3057663655113108 -0.3057663655113108 0.1179747799002807 
0.1179747799002807 0.1179747799002807 0.1141995175959907 0.1141995175959907 0.1141995175959907 0.8706875007311342 0.8706875007311342 0.8706875007311342 0.8729241032349468 
0.8729241032349468 0.8729241032349468 0.1626305697982188 0.1626305697982188 0.1626305697982188 0.1612287262247236 0.1612287262247236 0.1612287262247236 -0.440096260659407 
-0.440096260659407 -0.440096260659407 -0.4627042556599664 -0.4627042556599664 -0.4627042556599664 -0.6167750341975099 -0.6167750341975099 -0.6167750341975099 -0.6241489373334252 
-0.6241489373334252 -0.6241489373334252 0.1111480050549159 0.1111480050549159 0.1111480050549159 0.1202453031721798 0.1202453031721798 0.1202453031721798 -0.5572933390648789 
-0.5572933390648789 -0.5572933390648789 -0.5538502265817061 -0.5538502265817061 -0.5538502265817061 0.3886461711629519 0.3886461711629519 0.3886461711629519 0.3695781644757137 
0.3695781644757137 0.3695781644757137 0.4283896936696323 0.4283896936696323 0.4283896936696323 0.4144378909049424 0.4144378909049424 0.4144378909049424 -0.3581491295535467 
-0.3581491295535467 -0.3581491295535467 -0.3705726581184055 -0.3705726581184055 -0.3705726581184055 -0.6629690994585234 -0.6629690994585234 -0.6629690994585234 -0.675919857585909 
-0.675919857585909 -0.675919857585909 -0.358510090168359 -0.358510090168359 -0.358510090168359 -0.3766939969455891 -0.3766939969455891 -0.3766939969455891 -0.761199386054964 
-0.761199386054964 -0.761199386054964 -0.7679752977493977 -0.7679752977493977 -0.7679752977493977 -0.6362079070354844 -0.6362079070354844 -0.6362079070354844 -0.6234207344856506 
-0.6234207344856506 -0.6234207344856506 0.1512631282773365 0.1512631282773365 0.1512631282773365 0.1339082799235901 0.1339082799235901 0.1339082799235901 0.7120157185249708 
0.7120157185249708 0.7120157185249708 0.699402833574414 0.699402833574414 0.699402833574414 0.03917338605973857 0.03917338605973857 0.03917338605973857 0.0344310772464233 
0.0344310772464233 0.0344310772464233 -0.799187417822192 -0.799187417822192 -0.799187417822192 -0.7961026160223548 -0.7961026160223548 -0.7961026160223548 -0.6977313951095178 
-0.6977313951095178 -0.6977313951095178 -0.6894558988775363 -0.6894558988775363 -0.6894558988775363 -0.05478452085376798 -0.05478452085376798 -0.05478452085376798 -0.05769465745677939 
-0.05769465745677939 -0.05769465745677939 0.1958871632626371 0.1958871632626371 0.1958871632626371 0.1919574291263648 0.1919574291263648 0.1919574291263648 -0.7175141811024592 
-0.7175141811024592 -0.7175141811024592 -0.7127984441524977 -0.7127984441524977 -0.7127984441524977 -0.8441460286882361 -0.8441460286882361 -0.8441460286882361 -0.845338817078545 
-0.845338817078545 -0.845338817078545 -0.2722504878522157 -0.2722504878522157 -0.2722504878522157 -0.2769079579143322 -0.2769079579143322 -0.2769079579143322 -0.01715752614145919 
-0.01715752614145919 -0.01715752614145919 -0.02163423345954646 -0.02163423345954646 -0.02163423345954646 0.6251556310433617 0.6251556310433617 0.6251556310433617 0.616696237668046 
0.616696237668046 0.616696237668046 -0.1144361166128224 -0.1144361166128224 -0.1144361166128224 -0.1054299760324548 -0.1054299760324548 -0.1054299760324548 0.1507890399023897 
0.1507890399023897 0.1507890399023897 0.1462285735866042 0.1462285735866042 0.1462285735866042 0.4554061967427739 0.4554061967427739 0.4554061967427739 0.4698794984239498 
0.4698794984239498 0.4698794984239498 -0.02499925867092064 -0.02499925867092064 -0.02499925867092064 -0.01971261018767032 -0.01971261018767032 -0.01971261018767032 -0.2306838137362424 
-0.2306838137362424 -0.2306838137362424 -0.2202460015302035 -0.2202460015302035 -0.2202460015302035 -0.5238840824812772 -0.5238840824812772 -0.5238840824812772 0.09253380554521597 
0.09253380554521597 0.09253380554521597 0.1074780658571669 0.1074780658571669 0.1074780658571669 0.04385933467967845 0.04385933467967845 0.04385933467967845 0.04551665269768156 
0.04551665269768156 0.04551665269768156 0.525117812881771 0.525117812881771 0.525117812881771 0.5305710438712221 0.5305710438712221 0.5305710438712221 -0.3869288006104393 
-0.3869288006104393 -0.3869288006104393 -0.3958153270655841 -0.3958153270655841 -0.3958153270655841 0.4574194842581888 0.4574194842581888 0.4574194842581888 0.4635302872578795 
0.4635302872578795 0.4635302872578795 0.03160165509373125 0.03160165509373125 0.03160165509373125 0.5694307078850516 0.5694307078850516 0.5694307078850516 0.4179873752075554 
0.4179873752075554 0.4179873752075554 0.3065690545336757 0.3065690545336757 0.3065690545336757 -0.1858778034596187 -0.1858778034596187 -0.1858778034596187 0.3261041837074273 
0.3261041837074273 0.3261041837074273 0.2472292234155164 0.2472292234155164 0.2472292234155164 0.1826978211548096 0.1826978211548096 0.1826978211548096 -0.4999921773561367 
-0.4999921773561367 -0.4999921773561367 0.2206701983401327 0.2206701983401327 0.2206701983401327 0.03660546196137214 0.03660546196137214 0.03660546196137214 -0.1017569624137883 
-0.1017569624137883 -0.1017569624137883 -0.1156486708280082 -0.1156486708280082 -0.1156486708280082 0.2066485257367491 0.2066485257367491 0.2066485257367491 0.1986542132582274 
0.1986542132582274 0.1986542132582274 -0.6251939818685941 -0.6251939818685941 -0.6251939818685941 -0.6197972022039896 -0.6197972022039896 -0.6197972022039896 -0.4750528066533134 
-0.4750528066533134 -0.4750528066533134 -0.4941313349375998 -0.4941313349375998 -0.4941313349375998 0.2581915334889937 0.2581915334889937 0.2581915334889937 0.2763139133225046 
0.2763139133225046 0.2763139133225046 -0.4099979668915296 -0.4099979668915296 -0.4099979668915296 -0.4240368546187152 -0.4240368546187152 -0.4240368546187152 0.5671314392789526 
0.5671314392789526 0.5671314392789526 0.5881433635298764 0.5881433635298764 0.5881433635298764 0.2938596243684402 0.2938596243684402 0.2938596243684402 0.2910869460454097 
0.2910869460454097 0.2910869460454097 -0.05199349925151628 -0.05199349925151628 -0.05199349925151628 -0.07222098831547233 -0.07222098831547233 -0.07222098831547233 -0.7775644359406014 
-0.7775644359406014 -0.7775644359406014 -0.7803939856930021 -0.7803939856930021 -0.7803939856930021 0.06784111054887465 0.06784111054887465 0.06784111054887465 0.07666379136681349 
0.07666379136681349 0.07666379136681349 -0.8508960405804582 -0.8508960405804582 -0.8508960405804582 -0.859087069335013 -0.859087069335013 -0.859087069335013 -0.132387590548538 
-0.132387590548538 -0.132387590548538 -0.1474393542270392 -0.1474393542270392 -0.1474393542270392 0.8180562528244701 0.8180562528244701 0.8180562528244701 0.8014029681789929 
0.8014029681789929 0.8014029681789929 0.2722634791351537 0.2722634791351537 0.2722634791351537 0.2759038398715317 0.2759038398715317 0.2759038398715317 0.1773933491961555 
0.1773933491961555 0.1773933491961555 0.1919640045390746 0.1919640045390746 0.1919640045390746 0.8295675148353525 0.8295675148353525 0.8295675148353525 0.8220655167038409 
0.8220655167038409 0.8220655167038409 0.3733153052843816 0.3733153052843816 0.3733153052843816 0.3566244437260915 0.3566244437260915 0.3566244437260915 0.5763351497465929 
0.5763351497465929 0.5763351497465929 0.5765836249113161 0.5765836249113161 0.5765836249113161 -0.3243841424339234 -0.3243841424339234 -0.3243841424339234 -0.3251881599389043 
-0.3251881599389043 -0.3251881599389043 -0.2475456913120412 -0.2475456913120412 -0.2475456913120412 -0.2400373510585789 -0.2400373510585789 -0.2400373510585789 -0.196231196973943 
-0.196231196973943 -0.196231196973943 -0.2119428281344227 -0.2119428281344227 -0.2119428281344227 0.4151582231083581 0.4151582231083581 0.4151582231083581 0.4067218386056415 
0.4067218386056415 0.4067218386056415 -0.1098165242040481 -0.1098165242040481 -0.1098165242040481 -0.1012161375011369 -0.1012161375011369 -0.1012161375011369 -0.08471897619326055 
-0.08471897619326055 -0.08471897619326055 -0.06269696520335748 -0.06269696520335748 -0.06269696520335748 0.5711518176714281 0.5711518176714281 0.5711518176714281 0.563438563951564 
0.563438563951564 0.563438563951564 -0.3316565025903095 -0.3316565025903095 -0.3316565025903095 -0.3342595102068185 -0.3342595102068185 -0.3342595102068185 -0.6664388971004578 
-0.6664388971004578 -0.6664388971004578 -0.6474044012983426 -0.6474044012983426 -0.6474044012983426 -0.5466100946893021 -0.5466100946893021 -0.5466100946893021 -0.5726910431109113 
-0.5726910431109113 -0.5726910431109113 0.3545183968855341 0.3545183968855341 0.3545183968855341 0.3737284254863829 0.3737284254863829 0.3737284254863829 0.0454279965001459 
0.0454279965001459 0.0454279965001459 0.0210027299470823 0.0210027299470823 0.0210027299470823 -0.6771184557930303 -0.6771184557930303 -0.6771184557930303 -0.6942199475226258 
-0.6942199475226258 -0.6942199475226258 -0.1754576071782102 -0.1754576071782102 -0.1754576071782102 -0.1941311043697771 -0.1941311043697771 -0.1941311043697771 0.3264844533976142 
0.3264844533976142 0.3264844533976142 0.3388318158409994 0.3388318158409994 0.3388318158409994 -0.8554663665936972 -0.8554663665936972 -0.8554663665936972 -0.8547531652777796 
-0.8547531652777796 -0.8547531652777796 0.2564237277805301 0.2564237277805301 0.2564237277805301 0.2328208428432744 0.2328208428432744 0.2328208428432744 0.09937727105712227 
0.09937727105712227 0.09937727105712227 0.08233080187156526 0.08233080187156526 0.08233080187156526 0.0451967666853935 0.0451967666853935 0.0451967666853935 0.0477797144551039 
0.0477797144551039 0.0477797144551039 -0.2264322009157392 -0.2264322009157392 -0.2264322009157392 -0.2489063084351719 -0.2489063084351719 -0.2489063084351719 0.07120491658588912 
0.07120491658588912 0.07120491658588912 0.06574513781458786 0.06574513781458786 0.06574513781458786 0.870661675964379 0.870661675964379 0.870661675964379 0.8755925549382806 
0.8755925549382806 0.8755925549382806 0.1408029921577103 0.1408029921577103 0.1408029921577103 0.1173051473335174 0.1173051473335174 0.1173051473335174 0.217441358543472 
0.217441358543472 0.217441358543472 0.230675138000821 0.230675138000821 0.230675138000821 0.415347388241482 0.415347388241482 0.415347388241482 0.4317595721649957 
0.4317595721649957 0.4317595721649957 0.3040869670001358 0.3040869670001358 0.3040869670001358 0.3191009823461654 0.3191009823461654 0.3191009823461654 -0.06378622833310407 
-0.06378622833310407 -0.06378622833310407 -0.05850735470925465 -0.05850735470925465 -0.05850735470925465 0.3223903585622957 0.3223903585622957 0.3223903585622957 0.341659006467624 
0.341659006467624 0.341659006467624 0.07421734245186226 0.07421734245186226 0.07421734245186226 0.08307237451034355 0.08307237451034355 0.08307237451034355 0.2413566639009085 
0.2413566639009085 0.2413566639009085 0.2501024985203273 0.2501024985203273 0.2501024985203273 0.5004386431465044 0.5004386431465044 0.5004386431465044 0.4996257195425562 
0.4996257195425562 0.4996257195425562 -0.4899297480414662 -0.4899297480414662 -0.4899297480414662 -0.4664142298681259 -0.4664142298681259 -0.4664142298681259 0.111038012131076 
0.111038012131076 0.111038012131076 0.09741598590377443 0.09741598590377443 0.09741598590377443 0.1806516067423047 0.1806516067423047 0.1806516067423047 0.1768171594794453 
0.1768171594794453 0.1768171594794453 -0.5635954021310281 -0.5635954021310281 -0.5635954021310281 -0.5577198812812392 -0.5577198812812392 -0.5577198812812392 0.3685600473916654 
0.3685600473916654 0.3685600473916654 0.3505910013445305 0.3505910013445305 0.3505910013445305 -0.04619764222189679 -0.04619764222189679 -0.04619764222189679 -0.03937002682401122 
-0.03937002682401122 -0.03937002682401122 0.8603002555623431 0.8603002555623431 0.8603002555623431 0.8561461556025686 0.8561461556025686 0.8561461556025686 -0.02958868821772073 
-0.02958868821772073 -0.02958868821772073 -0.04553520129974676 -0.04553520129974676 -0.04553520129974676 0.01663946297128736 0.01663946297128736 0.01663946297128736 -0.0109300636670157 
-0.0109300636670157 -0.0109300636670157 0.3901188733696107 0.3901188733696107 0.3901188733696107 0.3982555878798933 0.3982555878798933 0.3982555878798933 0.04634142681918069 
0.04634142681918069 0.04634142681918069 0.04654848786184325 0.04654848786184325 0.04654848786184325 -0.8548039633053188 -0.8548039633053188 -0.8548039633053188 -0.8690306561894477 
-0.8690306561894477 -0.8690306561894477 0.2365626537793481 0.2365626537793481 0.2365626537793481 0.2140998936599265 0.2140998936599265 0.2140998936599265 0.08684541938526442 
0.08684541938526442 0.08684541938526442 0.09504543959513656 0.09504543959513656 0.09504543959513656 0.2510456386180644 0.2510456386180644 0.2510456386180644 0.2265907989200473 
0.2265907989200473 0.2265907989200473 0.1347363293352318 0.1347363293352318 0.1347363293352318 0.1345499381577844 0.1345499381577844 0.1345499381577844 0.2623810174094094 
0.2623810174094094 0.2623810174094094 0.2871741790746278 0.2871741790746278 0.2871741790746278 0.278847734656031 0.278847734656031 0.278847734656031 0.2818965578185398 
0.2818965578185398 0.2818965578185398 0.2983023424443075 0.2983023424443075 0.2983023424443075 0.2876308206212146 0.2876308206212146 0.2876308206212146 0.03902922660992904 
0.03902922660992904 0.03902922660992904 0.03833410287223438 0.03833410287223438 0.03833410287223438 0.04096384648452176 0.04096384648452176 0.04096384648452176 0.2810258566548303 
0.2810258566548303 0.2810258566548303 0.2587849612240932 0.2587849612240932 0.2587849612240932 0.2621116712878011 0.2621116712878011 0.2621116712878011 0.2524696453467341 
0.2524696453467341 0.2524696453467341 -0.802220777514882 -0.802220777514882 -0.802220777514882 -0.8066802853674223 -0.8066802853674223 -0.8066802853674223 -0.8010665357392528 
-0.8010665357392528 -0.8010665357392528 -0.1952470349811743 -0.1952470349811743 -0.1952470349811743 -0.2030403172282318 -0.2030403172282318 -0.2030403172282318 -0.1875643303568191 
-0.1875643303568191 -0.1875643303568191 -0.09696741540105422 -0.09696741540105422 -0.09696741540105422 -0.1127334125890019 -0.1127334125890019 -0.1127334125890019 -0.1067405107590337 
-0.1067405107590337 -0.1067405107590337 0.3871477601569442 0.3871477601569442 0.3871477601569442 0.3776798474506234 0.3776798474506234 0.3776798474506234 0.3672544112375744 
0.3672544112375744 0.3672544112375744 -0.3886594866479498 -0.3886594866479498 -0.3886594866479498 -0.3832297789354572 -0.3832297789354572 -0.3832297789354572 -0.3612896200867085 
-0.3612896200867085 -0.3612896200867085 -0.3392252577239325 -0.3392252577239325 -0.3392252577239325 -0.3503981022623213 -0.3503981022623213 -0.3503981022623213 -0.3568563104139273 
-0.3568563104139273 -0.3568563104139273 0.8427078877807417 0.8427078877807417 0.8427078877807417 0.8353883776829508 0.8353883776829508 0.8353883776829508 0.8368862545658642 
0.8368862545658642 0.8368862545658642 0.2359321143182222 0.2359321143182222 0.2359321143182222 0.2446685182437808 0.2446685182437808 0.2446685182437808 0.2483229998580178 
0.2483229998580178 0.2483229998580178 0.3719967579426749 0.3719967579426749 0.3719967579426749 0.3637489295035379 0.3637489295035379 0.3637489295035379 0.3756851351950287 
0.3756851351950287 0.3756851351950287 0.04260508647408544 0.04260508647408544 0.04260508647408544 0.04363071383920472 0.04363071383920472 0.04363071383920472 -0.8051168893046778 
-0.8051168893046778 -0.8051168893046778 -0.8101257942509243 -0.8101257942509243 -0.8101257942509243 -0.8160220724381406 -0.8160220724381406 -0.8160220724381406 0.586061671622977 
0.586061671622977 0.586061671622977 0.581228589892397 0.581228589892397 0.581228589892397 0.5676973941065699 0.5676973941065699 0.5676973941065699 -0.4547266744373737 
-0.4547266744373737 -0.4547266744373737 -0.4493817075844128 -0.4493817075844128 -0.4493817075844128 -0.4589037653661676 -0.4589037653661676 -0.4589037653661676 -0.1755875382006107 
-0.1755875382006107 -0.1755875382006107 -0.1758238246970799 -0.1758238246970799 -0.1758238246970799 -0.1582872076884635 -0.1582872076884635 -0.1582872076884635 0.5153042818703447 
0.5153042818703447 0.5153042818703447 0.5240392112960344 0.5240392112960344 0.5240392112960344 0.5352357610965208 0.5352357610965208 0.5352357610965208 -0.6368668560486654 
-0.6368668560486654 -0.6368668560486654 -0.644239123789763 -0.644239123789763 -0.644239123789763 -0.6475698863394181 -0.6475698863394181 -0.6475698863394181 0.5955235443869153 
0.5955235443869153 0.5955235443869153 0.5824793568353899 0.5824793568353899 0.5824793568353899 -0.2069318343803901 -0.2069318343803901 -0.2069318343803901 -0.1939226308385686 
-0.1939226308385686 -0.1939226308385686 0.1182544873813755 0.1182544873813755 0.1182544873813755 0.1141904594453744 0.1141904594453744 0.1141904594453744 -0.3989927275408092 
-0.3989927275408092 -0.3989927275408092 -0.4079099386178552 -0.4079099386178552 -0.4079099386178552 -0.8291183507762179 -0.8291183507762179 -0.8291183507762179 -0.8295304014970061 
-0.8295304014970061 -0.8295304014970061 0.383229314598786 0.383229314598786 0.383229314598786 0.3909798789763257 0.3909798789763257 0.3909798789763257 -0.1395391592071571 
-0.1395391592071571 -0.1395391592071571 -0.1266216084694516 -0.1266216084694516 -0.1266216084694516 0.7758048717977456 0.7758048717977456 0.7758048717977456 0.7792580262622685 
0.7792580262622685 0.7792580262622685 0.03297181613075191 0.03297181613075191 0.03297181613075191 0.01646474727519236 0.01646474727519236 0.01646474727519236 -0.8655287465136503 
-0.8655287465136503 -0.8655287465136503 -0.8663850659773076 -0.8663850659773076 -0.8663850659773076 -0.7286401817581172 -0.7286401817581172 -0.7286401817581172 -0.7317658006580544 
-0.7317658006580544 -0.7317658006580544 -0.26906048442997 -0.26906048442997 -0.26906048442997 -0.2501248057978289 -0.2501248057978289 -0.2501248057978289 0.3367316031770256 
0.3367316031770256 0.3367316031770256 0.3460839503338503 0.3460839503338503 0.3460839503338503 0.2402751205532222 0.2402751205532222 0.2402751205532222 0.2247770070679015 
0.2247770070679015 0.2247770070679015 -0.4432105519536412 -0.4432105519536412 -0.4432105519536412 -0.4557831654628336 -0.4557831654628336 -0.4557831654628336 -0.09019473679353546 
-0.09019473679353546 -0.09019473679353546 -0.07980704195216083 -0.07980704195216083 -0.07980704195216083 0.345149457566649 0.345149457566649 0.345149457566649 0.34004049518534 
0.34004049518534 0.34004049518534 0.1014143334710421 0.1014143334710421 0.1014143334710421 0.1065317630446002 0.1065317630446002 0.1065317630446002 -0.5420642260916522 
-0.5420642260916522 -0.5420642260916522 -0.5571525762039518 -0.5571525762039518 -0.5571525762039518 0.4971225906466037 0.4971225906466037 0.4971225906466037 0.4959982009013479 
0.4959982009013479 0.4959982009013479 0.2252947509019248 0.2252947509019248 0.2252947509019248 0.1984239801069487 0.1984239801069487 0.1984239801069487 -0.5221321504405863 
-0.5221321504405863 -0.5221321504405863 -0.5280514440549544 -0.5280514440549544 -0.5280514440549544 0.1832005512452228 0.1832005512452228 0.1832005512452228 0.1974268530943353 
0.1974268530943353 0.1974268530943353 0.3812642020853579 0.3812642020853579 0.3812642020853579 0.4018162822570358 0.4018162822570358 0.4018162822570358 0.2362977724982127 
0.2362977724982127 0.2362977724982127 0.2430175941374052 0.2430175941374052 0.2430175941374052 -0.7909022547756264 -0.7909022547756264 -0.7909022547756264 -0.7837927707752808 
-0.7837927707752808 -0.7837927707752808 0.09517648844840944 0.09517648844840944 0.09517648844840944 0.08122964480242295 0.08122964480242295 0.08122964480242295 -0.418364238640024 
-0.418364238640024 -0.418364238640024 -0.4104995920756039 -0.4104995920756039 -0.4104995920756039 -0.8658703082699197 -0.8658703082699197 -0.8658703082699197 -0.8631975676827099 
-0.8631975676827099 -0.8631975676827099 0.7803890546830181 0.7803890546830181 0.7803890546830181 0.785175786508032 0.785175786508032 0.785175786508032 -0.6981878790441243 
-0.6981878790441243 -0.6981878790441243 -0.7144258122210696 -0.7144258122210696 -0.7144258122210696 0.2670435514458128 0.2670435514458128 0.2670435514458128 0.2637309286671414 
0.2637309286671414 0.2637309286671414 0.3964925042249825 0.3964925042249825 0.3964925042249825 0.4021496288280184 0.4021496288280184 0.4021496288280184 0.0419132724813133 
0.0419132724813133 0.0419132724813133 0.04168654421505494 0.04168654421505494 0.04168654421505494 -0.50008940298039 -0.50008940298039 -0.50008940298039 -0.4884136857481041 
-0.4884136857481041 -0.4884136857481041 -0.08928364203262873 -0.08928364203262873 -0.08928364203262873 -0.09468588964888404 -0.09468588964888404 -0.09468588964888404 0.4014353308153157 
0.4014353308153157 0.4014353308153157 0.4143887724496818 0.4143887724496818 0.4143887724496818 -0.3400564031480641 -0.3400564031480641 -0.3400564031480641 -0.314970326425871 
-0.314970326425871 -0.314970326425871 0.6060012015064372 0.6060012015064372 0.6060012015064372 0.6213373680207038 0.6213373680207038 0.6213373680207038 -0.8819951141095871 
-0.8819951141095871 -0.8819951141095871 -0.8796069703656075 -0.8796069703656075 -0.8796069703656075 0.4288086998647972 0.4288086998647972 0.4288086998647972 0.4367162621207166 
0.4367162621207166 0.4367162621207166 0.4770536626468794 0.4770536626468794 0.4770536626468794 0.4772909931655258 0.4772909931655258 0.4772909931655258 0.1572050194295458 
0.1572050194295458 0.1572050194295458 0.1551350907670945 0.1551350907670945 0.1551350907670945 0.1628845709483534 0.1628845709483534 0.1628845709483534 0.1735499395745299 
0.1735499395745299 0.1735499395745299 0.3015908399767863 0.3015908399767863 0.3015908399767863 0.3191435860049892 0.3191435860049892 0.3191435860049892 0.2401067508250451 
0.2401067508250451 0.2401067508250451 0.239155783847424 0.239155783847424 0.239155783847424 0.4534625717785291 0.4534625717785291 0.4534625717785291 0.4445896327733712 
0.4445896327733712 0.4445896327733712 0.2428113034099026 0.2428113034099026 0.2428113034099026 0.2661739685870486 0.2661739685870486 0.2661739685870486 -0.5101067868582512 
-0.5101067868582512 -0.5101067868582512 -0.5267997548390694 -0.5267997548390694 -0.5267997548390694 0.04317019204769444 0.04317019204769444 0.04317019204769444 0.04598197410397761 
0.04598197410397761 0.04598197410397761 -0.09408747063351376 -0.09408747063351376 -0.09408747063351376 -0.1095400931197143 -0.1095400931197143 -0.1095400931197143 -0.4206152472251398 
-0.4206152472251398 -0.4206152472251398 -0.4064792530843778 -0.4064792530843778 -0.4064792530843778 0.1510388421043508 0.1510388421043508 0.1510388421043508 0.1495909765816874 
0.1495909765816874 0.1495909765816874 -0.6553946063979358 -0.6553946063979358 -0.6553946063979358 -0.6631775860478546 -0.6631775860478546 -0.6631775860478546 -0.6418521793162758 
-0.6418521793162758 -0.6418521793162758 -0.6426100086079357 -0.6426100086079357 -0.6426100086079357 0.4613797472986356 0.4613797472986356 0.4613797472986356 0.4600161532531183 
0.4600161532531183 0.4600161532531183 -0.8659013559611535 -0.8659013559611535 -0.8659013559611535 -0.863238658574301 -0.863238658574301 -0.863238658574301 0.4412519156134077 
0.4412519156134077 0.4412519156134077 0.4397388694024031 0.4397388694024031 0.4397388694024031 0.64814768794817 0.64814768794817 0.64814768794817 0.6458881771703007 
0.6458881771703007 0.6458881771703007 0.8806265001863821 0.8806265001863821 0.8806265001863821 0.8796667055380937 0.8796667055380937 0.8796667055380937 0.8022564031825984 
0.8022564031825984 0.8022564031825984 0.7991858504688915 0.7991858504688915 0.7991858504688915 -0.004070137601465419 -0.004070137601465419 -0.004070137601465419 -0.00913156872116443 
-0.00913156872116443 -0.00913156872116443 -0.130053589057132 -0.130053589057132 -0.130053589057132 -0.1368095351487572 -0.1368095351487572 -0.1368095351487572 0.3707819741310701 
0.3707819741310701 0.3707819741310701 0.3639505416225293 0.3639505416225293 0.3639505416225293 -0.7426031353431128 -0.7426031353431128 -0.7426031353431128 -0.7446573947536553 
-0.7446573947536553 -0.7446573947536553 0.3996783733445902 0.3996783733445902 0.3996783733445902 0.3981092198746077 0.3981092198746077 0.3981092198746077 -0.6754291588990591 
-0.6754291588990591 -0.6754291588990591 -0.6739963596974448 -0.6739963596974448 -0.6739963596974448 -0.3031435439234129 -0.3031435439234129 -0.3031435439234129 -0.2997193484709538 
-0.2997193484709538 -0.2997193484709538 0.6899189017688824 0.6899189017688824 0.6899189017688824 0.6806397508341606 0.6806397508341606 0.6806397508341606 -0.1549165627728806 
-0.1549165627728806 -0.1549165627728806 -0.1833513509402477 -0.1833513509402477 -0.1833513509402477 0.2945561926709533 0.2945561926709533 0.2945561926709533 0.2878652837863572 
0.2878652837863572 0.2878652837863572 -0.2615740528697263 -0.2615740528697263 -0.2615740528697263 -0.2628319895117847 -0.2628319895117847 -0.2628319895117847 -0.8687811570767965 
-0.8687811570767965 -0.8687811570767965 -0.8724106357289461 -0.8724106357289461 -0.8724106357289461 0.4750884156424835 0.4750884156424835 0.4750884156424835 0.4584095986224537 
0.4584095986224537 0.4584095986224537 0.5925253192488713 0.5925253192488713 0.5925253192488713 0.5994515318946525 0.5994515318946525 0.5994515318946525 -0.8507899992033046 
-0.8507899992033046 -0.8507899992033046 -0.8513862054139953 -0.8513862054139953 -0.8513862054139953 -0.7533462646887205 -0.7533462646887205 -0.7533462646887205 -0.7648659323312494 
-0.7648659323312494 -0.7648659323312494 0.5195359789796988 0.5195359789796988 0.5195359789796988 0.5163768410994718 0.5163768410994718 0.5163768410994718 0.6065257291672923 
0.6065257291672923 0.6065257291672923 0.5923886634713386 0.5923886634713386 0.5923886634713386 0.3141412231751427 0.3141412231751427 0.3141412231751427 0.3194458078639411 
0.3194458078639411 0.3194458078639411 -0.7996598369436116 -0.7996598369436116 -0.7996598369436116 -0.7905200175708988 -0.7905200175708988 -0.7905200175708988 -0.3094332248704026 
-0.3094332248704026 -0.3094332248704026 -0.2955878642821591 -0.2955878642821591 -0.2955878642821591 -0.1814062177142148 -0.1814062177142148 -0.1814062177142148 -0.1842619331098699 
-0.1842619331098699 -0.1842619331098699 -0.5879296089510929 -0.5879296089510929 -0.5879296089510929 -0.5684784167846251 -0.5684784167846251 -0.5684784167846251 0.2413675141371081 
0.2413675141371081 0.2413675141371081 0.2204512485461505 0.2204512485461505 0.2204512485461505 -0.3494558999804228 -0.3494558999804228 -0.3494558999804228 -0.3394046188127587 
-0.3394046188127587 -0.3394046188127587 0.1188210999592172 0.1188210999592172 0.1188210999592172 0.1088132581665265 0.1088132581665265 0.1088132581665265 -0.07901823270480524 
-0.07901823270480524 -0.07901823270480524 -0.09391286554133828 -0.09391286554133828 -0.09391286554133828 -0.1905438133382757 -0.1905438133382757 -0.1905438133382757 -0.2021367969408872 
-0.2021367969408872 -0.2021367969408872 0.2133226958468256 0.2133226958468256 0.2133226958468256 0.2145377990260105 0.2145377990260105 0.2145377990260105 0.8768683470678689 
0.8768683470678689 0.8768683470678689 0.8763472368329333 0.8763472368329333 0.8763472368329333 -0.8297758712322236 -0.8297758712322236 -0.8297758712322236 -0.8403588437642182 
-0.8403588437642182 -0.8403588437642182 0.8286573776497348 0.8286573776497348 0.8286573776497348 0.8293455095845796 0.8293455095845796 0.8293455095845796 0.1334513602016595 
0.1334513602016595 0.1334513602016595 0.1345127453620941 0.1345127453620941 0.1345127453620941 0.4028278972024465 0.4028278972024465 0.4028278972024465 0.3968913010369067 
0.3968913010369067 0.3968913010369067 0.8676439506629748 0.8676439506629748 0.8676439506629748 0.8666247732171208 0.8666247732171208 0.8666247732171208 -0.7880443991991819 
-0.7880443991991819 -0.7880443991991819 -0.7881101746786974 -0.7881101746786974 -0.7881101746786974 -0.3623738860176475 -0.3623738860176475 -0.3623738860176475 -0.3617784671169076 
-0.3617784671169076 -0.3617784671169076 0.04814399330402833 0.04814399330402833 0.04814399330402833 0.06174812802563532 0.06174812802563532 0.06174812802563532 -0.1848078147883122 