Title = Triangle150
FileType = Solution
Variables = q
Zone T = Triangle150
ZoneType = FETriangle
Nodes = 212082
Elements = 70694
DataPacking = Block
StrandID = 21
SolutionTime = 2
0.694930434160241 0.694930434160241 0.694930434160241 0.6867561963637759 0.6867561963637759 0.6867561963637759 0.6803766463059586 0.6803766463059586 0.6803766463059586 -0.8369556675057469 
-0.8369556675057469 -0.8369556675057469 -0.8348644533859744 -0.8348644533859744 -0.8348644533859744 -0.8340237664238895 -0.8340237664238895 -0.8340237664238895 0.3164259619681071 
0.3164259619681071 0.3164259619681071 0.3000324910748418 0.3000324910748418 0.3000324910748418 0.2882303469334362 0.2882303469334362 0.2882303469334362 0.5953505134479634 
0.5953505134479634 0.5953505134479634 0.586922518150953 0.586922518150953 0.586922518150953 0.5748573276241855 0.5748573276241855 0.5748573276241855 -0.2230778957964811 
-0.2230778957964811 -0.2230778957964811 -0.2193032996236793 -0.2193032996236793 -0.2193032996236793 -0.2257112500573292 -0.2257112500573292 -0.2257112500573292 -0.3171168420146069 
-0.3171168420146069 -0.3171168420146069 -0.3067567685167768 -0.3067567685167768 -0.3067567685167768 -0.2962662549174674 -0.2962662549174674 -0.2962662549174674 0.2506091452079602 
0.2506091452079602 0.2506091452079602 0.2603193925860746 0.2603193925860746 0.2603193925860746 -0.07349631786833147 -0.07349631786833147 -0.07349631786833147 -0.06994971782107254 
-0.06994971782107254 -0.06994971782107254 0.4121181493061106 0.4121181493061106 0.4121181493061106 0.4198379009299361 0.4198379009299361 0.4198379009299361 0.6116013090175837 
0.6116013090175837 0.6116013090175837 0.6036239253676232 0.6036239253676232 0.6036239253676232 -0.2935155396107598 -0.2935155396107598 -0.2935155396107598 -0.2998400840605513 
-0.2998400840605513 -0.2998400840605513 -0.2312795956082215 -0.2312795956082215 -0.2312795956082215 -0.2491581405363422 -0.2491581405363422 -0.2491581405363422 -0.2736951419299321 
-0.2736951419299321 -0.2736951419299321 -0.264068182177479 -0.264068182177479 -0.264068182177479 0.03463406602818924 0.03463406602818924 0.03463406602818924 0.04147084092525723 
0.04147084092525723 0.04147084092525723 0.1306312779634133 0.1306312779634133 0.1306312779634133 0.1231111192044745 0.1231111192044745 0.1231111192044745 -0.07710921142452791 
-0.07710921142452791 -0.07710921142452791 -0.07619604664489855 -0.07619604664489855 -0.07619604664489855 0.3135787973727006 0.3135787973727006 0.3135787973727006 0.3216547390157415 
0.3216547390157415 0.3216547390157415 0.0127262450970476 0.0127262450970476 0.0127262450970476 0.01137726408644804 0.01137726408644804 0.01137726408644804 0.6429098714862336 
0.6429098714862336 0.6429098714862336 0.6431867739295551 0.6431867739295551 0.6431867739295551 0.5686428988365406 0.5686428988365406 0.5686428988365406 0.5779064458912069 
0.5779064458912069 0.5779064458912069 -0.5871705408583013 -0.5871705408583013 -0.5871705408583013 -0.5839360450624944 -0.5839360450624944 -0.5839360450624944 0.535359449838575 
0.535359449838575 0.535359449838575 0.5253807235628858 0.5253807235628858 0.5253807235628858 -0.1522259529542591 -0.1522259529542591 -0.1522259529542591 -0.1440041373619706 
-0.1440041373619706 -0.1440041373619706 0.142686196890181 0.142686196890181 0.142686196890181 0.1421911983439704 0.1421911983439704 0.1421911983439704 0.2832601084579666 
0.2832601084579666 0.2832601084579666 0.2800779190903047 0.2800779190903047 0.2800779190903047 -0.09426765880346551 -0.09426765880346551 -0.09426765880346551 -0.1041987101095885 
-0.1041987101095885 -0.1041987101095885 0.3640074858777385 0.3640074858777385 0.3640074858777385 0.3799966262008059 0.3799966262008059 0.3799966262008059 -0.2463080001047201 
-0.2463080001047201 -0.2463080001047201 -0.246639174982318 -0.246639174982318 -0.246639174982318 -0.1416455468080178 -0.1416455468080178 -0.1416455468080178 -0.1314348300077214 
-0.1314348300077214 -0.1314348300077214 0.1849972736924383 0.1849972736924383 0.1849972736924383 0.1798536196566775 0.1798536196566775 0.1798536196566775 -0.1007107923907127 
-0.1007107923907127 -0.1007107923907127 -0.08627210729865128 -0.08627210729865128 -0.08627210729865128 0.4169607126010151 0.4169607126010151 0.4169607126010151 0.4254945687131023 
0.4254945687131023 0.4254945687131023 -0.2633006254585549 -0.2633006254585549 -0.2633006254585549 -0.255391413564952 -0.255391413564952 -0.255391413564952 0.1232501620864976 
0.1232501620864976 0.1232501620864976 0.1146663278107344 0.1146663278107344 0.1146663278107344 -0.1696392264044247 -0.1696392264044247 -0.1696392264044247 -0.1741713941349771 
-0.1741713941349771 -0.1741713941349771 -0.07167708174152232 -0.07167708174152232 -0.07167708174152232 -0.07620276156539463 -0.07620276156539463 -0.07620276156539463 -0.6732167573444708 
-0.6732167573444708 -0.6732167573444708 -0.680216347349498 -0.680216347349498 -0.680216347349498 -0.02380334595668551 -0.02380334595668551 -0.02380334595668551 -0.0204033406085001 
-0.0204033406085001 -0.0204033406085001 -0.4477744271677526 -0.4477744271677526 -0.4477744271677526 -0.4628659212875828 -0.4628659212875828 -0.4628659212875828 0.4333443658214992 
0.4333443658214992 0.4333443658214992 0.4260387651654286 0.4260387651654286 0.4260387651654286 -0.08099434532848704 -0.08099434532848704 -0.08099434532848704 -0.08204705185323063 
-0.08204705185323063 -0.08204705185323063 0.03611642190514897 0.03611642190514897 0.03611642190514897 0.04328274459708414 0.04328274459708414 0.04328274459708414 -0.08950098945521641 
-0.08950098945521641 -0.08950098945521641 -0.08613624565459251 -0.08613624565459251 -0.08613624565459251 0.6713647687303391 0.6713647687303391 0.6713647687303391 0.02195773561754136 
0.02195773561754136 0.02195773561754136 0.01821917431741058 0.01821917431741058 0.01821917431741058 0.10518060649679 0.10518060649679 0.10518060649679 0.1180279710080554 
0.1180279710080554 0.1180279710080554 -0.3551331623008512 -0.3551331623008512 -0.3551331623008512 -0.3628932376399868 -0.3628932376399868 -0.3628932376399868 -0.06851800384093643 
-0.06851800384093643 -0.06851800384093643 -0.0710617749921108 -0.0710617749921108 -0.0710617749921108 -0.6819925284814584 -0.6819925284814584 -0.6819925284814584 -0.6830763854322678 
-0.6830763854322678 -0.6830763854322678 0.1435896196671047 0.1435896196671047 0.1435896196671047 -0.5228136326130804 -0.5228136326130804 -0.5228136326130804 0.1900509691408108 
0.1900509691408108 0.1900509691408108 -0.2574207034408525 -0.2574207034408525 -0.2574207034408525 -0.4677168013715046 -0.4677168013715046 -0.4677168013715046 -0.6126348644554416 
-0.6126348644554416 -0.6126348644554416 0.2210014656131464 0.2210014656131464 0.2210014656131464 0.02257860914340224 0.02257860914340224 0.02257860914340224 0.5135079047858456 
0.5135079047858456 0.5135079047858456 -0.2745332900499252 -0.2745332900499252 -0.2745332900499252 0.03961999245677704 0.03961999245677704 0.03961999245677704 -0.5289031551964153 
-0.5289031551964153 -0.5289031551964153 -0.5500595894072383 -0.5500595894072383 -0.5500595894072383 0.327009097732155 0.327009097732155 0.327009097732155 0.3334535979421696 
0.3334535979421696 0.3334535979421696 0.4100433713781662 0.4100433713781662 0.4100433713781662 0.4238935913863525 0.4238935913863525 0.4238935913863525 0.5098341685667223 
0.5098341685667223 0.5098341685667223 0.4911588934815426 0.4911588934815426 0.4911588934815426 -0.5150071200018997 -0.5150071200018997 -0.5150071200018997 -0.4960130939765786 
-0.4960130939765786 -0.4960130939765786 0.6259329168426317 0.6259329168426317 0.6259329168426317 0.6343151237560107 0.6343151237560107 0.6343151237560107 0.5282852407249355 
0.5282852407249355 0.5282852407249355 0.5239802867949591 0.5239802867949591 0.5239802867949591 -0.7816920837058642 -0.7816920837058642 -0.7816920837058642 -0.7760880093136207 
-0.7760880093136207 -0.7760880093136207 -0.5933268349103408 -0.5933268349103408 -0.5933268349103408 -0.6071685693332749 -0.6071685693332749 -0.6071685693332749 0.1401099933332195 
0.1401099933332195 0.1401099933332195 0.1676104529737982 0.1676104529737982 0.1676104529737982 0.1082490716511977 0.1082490716511977 0.1082490716511977 0.1325982751711384 
0.1325982751711384 0.1325982751711384 0.1374260502951834 0.1374260502951834 0.1374260502951834 0.1036113311903261 0.1036113311903261 0.1036113311903261 -0.3334272317572841 
-0.3334272317572841 -0.3334272317572841 -0.3580753978126268 -0.3580753978126268 -0.3580753978126268 0.2880440531449521 0.2880440531449521 0.2880440531449521 0.3117515516700654 
0.3117515516700654 0.3117515516700654 -0.3405650909063305 -0.3405650909063305 -0.3405650909063305 -0.3626603049911197 -0.3626603049911197 -0.3626603049911197 0.100053023924956 
0.100053023924956 0.100053023924956 0.1024411690130447 0.1024411690130447 0.1024411690130447 0.2837553609723856 0.2837553609723856 0.2837553609723856 0.2941482013267716 
0.2941482013267716 0.2941482013267716 0.1664873162350569 0.1664873162350569 0.1664873162350569 0.1539653760539885 0.1539653760539885 0.1539653760539885 -0.293040152398921 
-0.293040152398921 -0.293040152398921 -0.2693733987742117 -0.2693733987742117 -0.2693733987742117 -0.7855796280774558 -0.7855796280774558 -0.7855796280774558 -0.7865688154598061 
-0.7865688154598061 -0.7865688154598061 0.2280343143855922 0.2280343143855922 0.2280343143855922 0.2417125062430696 0.2417125062430696 0.2417125062430696 -0.558757391790128 
-0.558757391790128 -0.558757391790128 -0.5498822799479706 -0.5498822799479706 -0.5498822799479706 -0.6238790132638143 -0.6238790132638143 -0.6238790132638143 -0.6139650881308125 
-0.6139650881308125 -0.6139650881308125 0.7889108658925146 0.7889108658925146 0.7889108658925146 0.7801954652220833 0.7801954652220833 0.7801954652220833 0.5441048886660667 
0.5441048886660667 0.5441048886660667 0.534096595592476 0.534096595592476 0.534096595592476 -0.2755050096118742 -0.2755050096118742 -0.2755050096118742 -0.2872829447304101 
-0.2872829447304101 -0.2872829447304101 0.7637293317517144 0.7637293317517144 0.7637293317517144 0.7699259719073519 0.7699259719073519 0.7699259719073519 0.3903617546468233 
0.3903617546468233 0.3903617546468233 0.4059290397861597 0.4059290397861597 0.4059290397861597 0.6387275727241456 0.6387275727241456 0.6387275727241456 0.6132004197875651 
0.6132004197875651 0.6132004197875651 0.5434739324995332 0.5434739324995332 0.5434739324995332 0.5366367409678952 0.5366367409678952 0.5366367409678952 -0.08666879635162253 
-0.08666879635162253 -0.08666879635162253 -0.06983180849095805 -0.06983180849095805 -0.06983180849095805 0.5152094202907952 0.5152094202907952 0.5152094202907952 0.5031640828563038 
0.5031640828563038 0.5031640828563038 0.3991482949358022 0.3991482949358022 0.3991482949358022 0.4057283154700815 0.4057283154700815 0.4057283154700815 0.1582017677817409 
0.1582017677817409 0.1582017677817409 0.150823028867953 0.150823028867953 0.150823028867953 -0.2145119420009799 -0.2145119420009799 -0.2145119420009799 -0.2161229148815621 
-0.2161229148815621 -0.2161229148815621 -0.7479423109427794 -0.7479423109427794 -0.7479423109427794 -0.747977012352576 -0.747977012352576 -0.747977012352576 -0.002668704360655659 
-0.002668704360655659 -0.002668704360655659 -0.009185803499114627 -0.009185803499114627 -0.009185803499114627 -0.05468033056883829 -0.05468033056883829 -0.05468033056883829 -0.04916620161067718 
-0.04916620161067718 -0.04916620161067718 -0.6389064953373051 -0.6389064953373051 -0.6389064953373051 -0.6386822046393665 -0.6386822046393665 -0.6386822046393665 -0.06492726736395363 
-0.06492726736395363 -0.06492726736395363 -0.05028321326981523 -0.05028321326981523 -0.05028321326981523 -0.03849035407331637 -0.03849035407331637 -0.03849035407331637 -0.03866213723967221 
-0.03866213723967221 -0.03866213723967221 0.6722133808807708 0.6722133808807708 0.6722133808807708 0.6636338908062385 0.6636338908062385 0.6636338908062385 -0.4963029843407615 
-0.4963029843407615 -0.4963029843407615 -0.4828538858278931 -0.4828538858278931 -0.4828538858278931 -0.6317579891094163 -0.6317579891094163 -0.6317579891094163 -0.6142413570429909 
-0.6142413570429909 -0.6142413570429909 0.5924965406005034 0.5924965406005034 0.5924965406005034 0.6062489255842478 0.6062489255842478 0.6062489255842478 0.1888114591242868 
0.1888114591242868 0.1888114591242868 0.1618466571918298 0.1618466571918298 0.1618466571918298 0.4994382594849275 0.4994382594849275 0.4994382594849275 0.5120029322944093 
0.5120029322944093 0.5120029322944093 -0.1503082759236535 -0.1503082759236535 -0.1503082759236535 -0.1601692246328269 -0.1601692246328269 -0.1601692246328269 -0.3365785829922351 
-0.3365785829922351 -0.3365785829922351 -0.3276510382476632 -0.3276510382476632 -0.3276510382476632 0.606101355439626 0.606101355439626 0.606101355439626 0.5879454618439075 
0.5879454618439075 0.5879454618439075 0.2905420934042235 0.2905420934042235 0.2905420934042235 0.2874342413877012 0.2874342413877012 0.2874342413877012 0.01668426015926274 
0.01668426015926274 0.01668426015926274 0.004272105555682062 0.004272105555682062 0.004272105555682062 0.4542138606860671 0.4542138606860671 0.4542138606860671 0.473594335698507 
0.473594335698507 0.473594335698507 -0.4838296232338192 -0.4838296232338192 -0.4838296232338192 -0.5127079520157249 -0.5127079520157249 -0.5127079520157249 0.4391276804337892 
0.4391276804337892 0.4391276804337892 0.4264285407909779 0.4264285407909779 0.4264285407909779 -0.7734691258561376 -0.7734691258561376 -0.7734691258561376 -0.7831302986884957 
-0.7831302986884957 -0.7831302986884957 -0.1864059125462149 -0.1864059125462149 -0.1864059125462149 -0.2077721748661292 -0.2077721748661292 -0.2077721748661292 0.8230785399974097 
0.8230785399974097 0.8230785399974097 0.8289035359033217 0.8289035359033217 0.8289035359033217 0.04400276555198993 0.04400276555198993 0.04400276555198993 0.0588725820923952 
0.0588725820923952 0.0588725820923952 -0.6784786353311232 -0.6784786353311232 -0.6784786353311232 -0.6878069808467836 -0.6878069808467836 -0.6878069808467836 0.1596414979718767 
0.1596414979718767 0.1596414979718767 0.1874862734186597 0.1874862734186597 0.1874862734186597 0.1384853052604689 0.1384853052604689 0.1384853052604689 0.08761365207288865 
0.08761365207288865 0.08761365207288865 -0.633120741478204 -0.633120741478204 -0.633120741478204 -0.6313214823417896 -0.6313214823417896 -0.6313214823417896 -0.5052265010748611 
-0.5052265010748611 -0.5052265010748611 -0.4933762191187592 -0.4933762191187592 -0.4933762191187592 -0.1958388685652163 -0.1958388685652163 -0.1958388685652163 -0.1764886424204272 
-0.1764886424204272 -0.1764886424204272 0.337834140113412 0.337834140113412 0.337834140113412 0.3122349900827566 0.3122349900827566 0.3122349900827566 -0.1056202589618913 
-0.1056202589618913 -0.1056202589618913 -0.1057688960703769 -0.1057688960703769 -0.1057688960703769 0.6066041038162153 0.6066041038162153 0.6066041038162153 0.6128863148127476 
0.6128863148127476 0.6128863148127476 0.6130587480841666 0.6130587480841666 0.6130587480841666 0.5879793739216523 0.5879793739216523 0.5879793739216523 -0.0941464054406497 
-0.0941464054406497 -0.0941464054406497 -0.08160339119203909 -0.08160339119203909 -0.08160339119203909 -0.07408574246178692 -0.07408574246178692 -0.07408574246178692 0.3968098055752316 
0.3968098055752316 0.3968098055752316 0.407004133977271 0.407004133977271 0.407004133977271 0.4168449690113775 0.4168449690113775 0.4168449690113775 0.4249448124374247 
0.4249448124374247 0.4249448124374247 0.2250755166513901 0.2250755166513901 0.2250755166513901 0.2103682330046477 0.2103682330046477 0.2103682330046477 0.2049975771269121 
0.2049975771269121 0.2049975771269121 0.7542670038532006 0.7542670038532006 0.7542670038532006 0.7584588056930317 0.7584588056930317 0.7584588056930317 0.7663136291344717 
0.7663136291344717 0.7663136291344717 0.7661753471905104 0.7661753471905104 0.7661753471905104 0.7560898578604222 0.7560898578604222 0.7560898578604222 0.751338900302065 
0.751338900302065 0.751338900302065 -0.08300562812885669 -0.08300562812885669 -0.08300562812885669 -0.08001447638244691 -0.08001447638244691 -0.08001447638244691 -0.07701221548722004 
-0.07701221548722004 -0.07701221548722004 -0.7356625452916422 -0.7356625452916422 -0.7356625452916422 -0.7416070637884531 -0.7416070637884531 -0.7416070637884531 -0.7494312391798165 
-0.7494312391798165 -0.7494312391798165 0.5632965920834645 0.5632965920834645 0.5632965920834645 0.5604000598287489 0.5604000598287489 0.5604000598287489 0.5689140881571699 
0.5689140881571699 0.5689140881571699 -0.2517977350195044 -0.2517977350195044 -0.2517977350195044 -0.2775659721545803 -0.2775659721545803 -0.2775659721545803 -0.2736485442918152 
-0.2736485442918152 -0.2736485442918152 -0.4793717308621432 -0.4793717308621432 -0.4793717308621432 -0.4755915515812099 -0.4755915515812099 -0.4755915515812099 -0.4608499842764674 
-0.4608499842764674 -0.4608499842764674 -0.3262386713164138 -0.3262386713164138 -0.3262386713164138 -0.3130920831322305 -0.3130920831322305 -0.3130920831322305 -0.3092482143574884 
-0.3092482143574884 -0.3092482143574884 -0.0817102035583827 -0.0817102035583827 -0.0817102035583827 -0.09100042454788684 -0.09100042454788684 -0.09100042454788684 0.1161201551643135 
0.1161201551643135 0.1161201551643135 0.1340346627970429 0.1340346627970429 0.1340346627970429 0.1294924112318855 0.1294924112318855 0.1294924112318855 -0.3206055491546536 
-0.3206055491546536 -0.3206055491546536 -0.3141206147833863 -0.3141206147833863 -0.3141206147833863 -0.3133457506603933 -0.3133457506603933 -0.3133457506603933 -0.2191909162392952 
-0.2191909162392952 -0.2191909162392952 -0.2096951174982884 -0.2096951174982884 -0.2096951174982884 -0.2044924378259246 -0.2044924378259246 -0.2044924378259246 0.6002655769064444 
0.6002655769064444 0.6002655769064444 0.5904458966572704 0.5904458966572704 0.5904458966572704 0.5879873635594726 0.5879873635594726 0.5879873635594726 0.07281514977990824 
0.07281514977990824 0.07281514977990824 0.07193833044013456 0.07193833044013456 0.07193833044013456 0.07062634553465803 0.07062634553465803 0.07062634553465803 0.5300546556505801 
0.5300546556505801 0.5300546556505801 0.5208492766829712 0.5208492766829712 0.5208492766829712 0.5137081519316774 0.5137081519316774 0.5137081519316774 0.5952532277123941 
0.5952532277123941 0.5952532277123941 0.6085129312503798 0.6085129312503798 0.6085129312503798 0.07600888845791617 0.07600888845791617 0.07600888845791617 0.06975276840071762 
0.06975276840071762 0.06975276840071762 0.3422866622367527 0.3422866622367527 0.3422866622367527 0.3310938905390994 0.3310938905390994 0.3310938905390994 0.3746377163354598 
0.3746377163354598 0.3746377163354598 0.3789226021333923 0.3789226021333923 0.3789226021333923 0.1866622538284722 0.1866622538284722 0.1866622538284722 0.1719389338914207 
0.1719389338914207 0.1719389338914207 0.38149865651926 0.38149865651926 0.38149865651926 0.389422280434386 0.389422280434386 0.389422280434386 0.7822828763848314 
0.7822828763848314 0.7822828763848314 0.7746290112668563 0.7746290112668563 0.7746290112668563 -0.2310496794949768 -0.2310496794949768 -0.2310496794949768 -0.2375912837870217 
-0.2375912837870217 -0.2375912837870217 -0.5216255770807339 -0.5216255770807339 -0.5216255770807339 -0.511597051190277 -0.511597051190277 -0.511597051190277 -0.1176761009865198 
-0.1176761009865198 -0.1176761009865198 -0.1227379441004238 -0.1227379441004238 -0.1227379441004238 -0.4799206774713849 -0.4799206774713849 -0.4799206774713849 -0.4758171527616138 
-0.4758171527616138 -0.4758171527616138 -0.6016938826002683 -0.6016938826002683 -0.6016938826002683 -0.5929543805859386 -0.5929543805859386 -0.5929543805859386 0.1391767371794962 
0.1391767371794962 0.1391767371794962 0.1438989709732855 0.1438989709732855 0.1438989709732855 0.763727605153243 0.763727605153243 0.763727605153243 0.7575874882192304 
0.7575874882192304 0.7575874882192304 0.6843520156289526 0.6843520156289526 0.6843520156289526 0.6763532275819047 0.6763532275819047 0.6763532275819047 0.5063150725393473 
0.5063150725393473 0.5063150725393473 0.4944195939839913 0.4944195939839913 0.4944195939839913 -0.6975942860170907 -0.6975942860170907 -0.6975942860170907 -0.7110753084617164 
-0.7110753084617164 -0.7110753084617164 0.004327654033016744 0.004327654033016744 0.004327654033016744 -0.001532927198343071 -0.001532927198343071 -0.001532927198343071 0.6697440279601931 
0.6697440279601931 0.6697440279601931 0.6579369123695551 0.6579369123695551 0.6579369123695551 -0.6139795452627383 -0.6139795452627383 -0.6139795452627383 -0.6217829076163408 
-0.6217829076163408 -0.6217829076163408 -0.7870056909681069 -0.7870056909681069 -0.7870056909681069 -0.7903676792081982 -0.7903676792081982 -0.7903676792081982 -0.5052773490926052 
-0.5052773490926052 -0.5052773490926052 -0.5121223430339485 -0.5121223430339485 -0.5121223430339485 0.4519018817352985 0.4519018817352985 0.4519018817352985 0.4430037174460486 
0.4430037174460486 0.4430037174460486 -0.6278469305913996 -0.6278469305913996 -0.6278469305913996 -0.6183168844884076 -0.6183168844884076 -0.6183168844884076 -0.4580602003422592 
-0.4580602003422592 -0.4580602003422592 -0.4786496220385246 -0.4786496220385246 -0.4786496220385246 -0.3050555521588436 -0.3050555521588436 -0.3050555521588436 -0.3099773224008598 
-0.3099773224008598 -0.3099773224008598 0.009624272361778062 0.009624272361778062 0.009624272361778062 -0.002705453004462485 -0.002705453004462485 -0.002705453004462485 0.1709830018354673 
0.1709830018354673 0.1709830018354673 0.16620424060307 0.16620424060307 0.16620424060307 -0.1436625490365438 -0.1436625490365438 -0.1436625490365438 -0.1489659498425327 
-0.1489659498425327 -0.1489659498425327 0.3535257385119464 0.3535257385119464 0.3535257385119464 0.3498123992491607 0.3498123992491607 0.3498123992491607 -0.5100334049848254 
-0.5100334049848254 -0.5100334049848254 -0.4860218169547915 -0.4860218169547915 -0.4860218169547915 -0.7460481171272861 -0.7460481171272861 -0.7460481171272861 -0.7515879880211076 
-0.7515879880211076 -0.7515879880211076 0.1610658585935296 0.1610658585935296 0.1610658585935296 0.1682683546650843 0.1682683546650843 0.1682683546650843 -0.0296786532219274 
-0.0296786532219274 -0.0296786532219274 -0.01558378286695348 -0.01558378286695348 -0.01558378286695348 -0.07153511692995104 -0.07153511692995104 -0.07153511692995104 -0.06735985894507361 
-0.06735985894507361 -0.06735985894507361 -0.1870101500902953 -0.1870101500902953 -0.1870101500902953 -0.1998817392931245 -0.1998817392931245 -0.1998817392931245 0.135966750031227 
0.135966750031227 0.135966750031227 0.1450407770795695 0.1450407770795695 0.1450407770795695 -0.7223469722711974 -0.7223469722711974 -0.7223469722711974 -0.727471680373061 
-0.727471680373061 -0.727471680373061 -0.2131247988465954 -0.2131247988465954 -0.2131247988465954 -0.209805043479864 -0.209805043479864 -0.209805043479864 -0.04470134565110712 
-0.04470134565110712 -0.04470134565110712 -0.07542135482316153 -0.07542135482316153 -0.07542135482316153 -0.1900603630548078 -0.1900603630548078 -0.1900603630548078 -0.199438436155724 
-0.199438436155724 -0.199438436155724 0.6219745074604017 0.6219745074604017 0.6219745074604017 0.6133004026704459 0.6133004026704459 0.6133004026704459 0.6563139100030908 
0.6563139100030908 0.6563139100030908 0.6628021316629606 0.6628021316629606 0.6628021316629606 0.1044378251953877 0.1044378251953877 0.1044378251953877 0.1092108035970333 
0.1092108035970333 0.1092108035970333 -0.6900829816452682 -0.6900829816452682 -0.6900829816452682 -0.6781672334804694 -0.6781672334804694 -0.6781672334804694 -0.51280650756963 
-0.51280650756963 -0.51280650756963 -0.503491463098121 -0.503491463098121 -0.503491463098121 0.1992497392610996 0.1992497392610996 0.1992497392610996 0.1974587359541879 
0.1974587359541879 0.1974587359541879 -0.6749919071808237 -0.6749919071808237 -0.6749919071808237 -0.6615312881449293 -0.6615312881449293 -0.6615312881449293 -0.4785130698674049 
-0.4785130698674049 -0.4785130698674049 -0.4828230333875438 -0.4828230333875438 -0.4828230333875438 -0.01080848305904949 -0.01080848305904949 -0.01080848305904949 -0.0209778236220633 
-0.0209778236220633 -0.0209778236220633 -0.3611116959209213 -0.3611116959209213 -0.3611116959209213 -0.3672834349993304 -0.3672834349993304 -0.3672834349993304 0.16937629321682 
0.16937629321682 0.16937629321682 0.1615378322047354 0.1615378322047354 0.1615378322047354 0.4682856421516904 0.4682856421516904 0.4682856421516904 0.4476739105189885 
0.4476739105189885 0.4476739105189885 -0.1442992291765006 -0.1442992291765006 -0.1442992291765006 -0.1446055413647727 -0.1446055413647727 -0.1446055413647727 0.006329228820208009 
0.006329228820208009 0.006329228820208009 -0.003936769273376768 -0.003936769273376768 -0.003936769273376768 -0.5401411197518974 -0.5401411197518974 -0.5401411197518974 -0.5314059344184978 
-0.5314059344184978 -0.5314059344184978 -0.1207715956156342 -0.1207715956156342 -0.1207715956156342 -0.1279487726917831 -0.1279487726917831 -0.1279487726917831 -0.538662399587001 
-0.538662399587001 -0.538662399587001 -0.5294054352392938 -0.5294054352392938 -0.5294054352392938 -0.4024318800862746 -0.4024318800862746 -0.4024318800862746 -0.3966648572781902 
-0.3966648572781902 -0.3966648572781902 -0.01712737464205803 -0.01712737464205803 -0.01712737464205803 -0.001198986453662152 -0.001198986453662152 -0.001198986453662152 0.3488197623398662 
0.3488197623398662 0.3488197623398662 0.3526435844063627 0.3526435844063627 0.3526435844063627 0.8155081684548137 0.8155081684548137 0.8155081684548137 0.8184064394883978 
0.8184064394883978 0.8184064394883978 -0.3809292611484769 -0.3809292611484769 -0.3809292611484769 -0.3929392873381164 -0.3929392873381164 -0.3929392873381164 -0.6573591606561707 
-0.6573591606561707 -0.6573591606561707 -0.65267491692044 -0.65267491692044 -0.65267491692044 -0.4555118158798592 -0.4555118158798592 -0.4555118158798592 -0.4507637671967944 
-0.4507637671967944 -0.4507637671967944 0.4517322588839812 0.4517322588839812 0.4517322588839812 0.4693258309721646 0.4693258309721646 0.4693258309721646 0.4011297167040607 
0.4011297167040607 0.4011297167040607 0.389244812937471 0.389244812937471 0.389244812937471 -0.7429702105384255 -0.7429702105384255 -0.7429702105384255 -0.7388811625106558 
-0.7388811625106558 -0.7388811625106558 -0.09152941843774788 -0.09152941843774788 -0.09152941843774788 -0.09458877789848161 -0.09458877789848161 -0.09458877789848161 -0.07185104702833577 
-0.07185104702833577 -0.07185104702833577 -0.07735313144672207 -0.07735313144672207 -0.07735313144672207 0.577805484152121 0.577805484152121 0.577805484152121 0.5727790880290208 
0.5727790880290208 0.5727790880290208 -0.4935846987244948 -0.4935846987244948 -0.4935846987244948 -0.5019811055212405 -0.5019811055212405 -0.5019811055212405 -0.1456085786706823 
-0.1456085786706823 -0.1456085786706823 -0.1262251545514136 -0.1262251545514136 -0.1262251545514136 -0.1250435220625825 -0.1250435220625825 -0.1250435220625825 -0.1290700580456608 
-0.1290700580456608 -0.1290700580456608 -0.2550123604246356 -0.2550123604246356 -0.2550123604246356 -0.2650048735002728 -0.2650048735002728 -0.2650048735002728 0.1862422970414368 
0.1862422970414368 0.1862422970414368 0.1912641462349188 0.1912641462349188 0.1912641462349188 0.4378039613021723 0.4378039613021723 0.4378039613021723 0.4169842980070443 
0.4169842980070443 0.4169842980070443 -0.6015603636973545 -0.6015603636973545 -0.6015603636973545 -0.6113072527736491 -0.6113072527736491 -0.6113072527736491 0.509068505659561 
0.509068505659561 0.509068505659561 0.5315761603591356 0.5315761603591356 0.5315761603591356 0.7931066388817343 0.7931066388817343 0.7931066388817343 0.7907685380580365 
0.7907685380580365 0.7907685380580365 -0.3169383989372344 -0.3169383989372344 -0.3169383989372344 -0.3400197071111846 -0.3400197071111846 -0.3400197071111846 0.16722371318059 
0.16722371318059 0.16722371318059 0.1616744916269462 0.1616744916269462 0.1616744916269462 -0.3652193097336072 -0.3652193097336072 -0.3652193097336072 -0.3745520757952512 
-0.3745520757952512 -0.3745520757952512 -0.6339725250351267 -0.6339725250351267 -0.6339725250351267 -0.64844884704309 -0.64844884704309 -0.64844884704309 -0.7444806748976553 
-0.7444806748976553 -0.7444806748976553 -0.7419141632669152 -0.7419141632669152 -0.7419141632669152 0.5169819582207373 0.5169819582207373 0.5169819582207373 0.5058174259835362 
0.5058174259835362 0.5058174259835362 0.008263199371299981 0.008263199371299981 0.008263199371299981 0.003965859775659475 0.003965859775659475 0.003965859775659475 0.1383406788668544 
0.1383406788668544 0.1383406788668544 0.1501411902528678 0.1501411902528678 0.1501411902528678 -0.05008582577010111 -0.05008582577010111 -0.05008582577010111 -0.05138668204370998 
-0.05138668204370998 -0.05138668204370998 -0.2905616813676566 -0.2905616813676566 -0.2905616813676566 -0.3048595443314897 -0.3048595443314897 -0.3048595443314897 -0.1055837302555227 
-0.1055837302555227 -0.1055837302555227 -0.1109814847719042 -0.1109814847719042 -0.1109814847719042 0.273147344456353 0.273147344456353 0.273147344456353 0.238751821021733 
0.238751821021733 0.238751821021733 0.2843135277152244 0.2843135277152244 0.2843135277152244 0.2778711183687895 0.2778711183687895 0.2778711183687895 -0.3097019625531529 
-0.3097019625531529 -0.3097019625531529 -0.3189736690173349 -0.3189736690173349 -0.3189736690173349 0.3319759237696673 0.3319759237696673 0.3319759237696673 0.323938031475565 
0.323938031475565 0.323938031475565 -0.07951214352030771 -0.07951214352030771 -0.07951214352030771 -0.06451694123842167 -0.06451694123842167 -0.06451694123842167 -0.3402296999472192 
-0.3402296999472192 -0.3402296999472192 -0.3460025519408381 -0.3460025519408381 -0.3460025519408381 0.6148171551046835 0.6148171551046835 0.6148171551046835 0.6232754122084432 
0.6232754122084432 0.6232754122084432 -0.09379908653070976 -0.09379908653070976 -0.09379908653070976 -0.103084702845077 -0.103084702845077 -0.103084702845077 0.3636611159611123 