Title = Triangle150
FileType = Solution
Variables = q
Zone T = Triangle150
ZoneType = FETriangle
Nodes = 212082
Elements = 70694
DataPacking = Block
StrandID = 7
SolutionTime = 0.6000000000000001
0.659368520042127 0.659368520042127 0.659368520042127 0.6651404020977993 0.6651404020977993 0.6651404020977993 0.6765133073305172 0.6765133073305172 0.6765133073305172 -0.29019996531702 
-0.29019996531702 -0.29019996531702 -0.2904916014584198 -0.2904916014584198 -0.2904916014584198 -0.2786154852807765 -0.2786154852807765 -0.2786154852807765 0.8073138919654395 
0.8073138919654395 0.8073138919654395 0.8172050198199288 0.8172050198199288 0.8172050198199288 0.8232472409781013 0.8232472409781013 0.8232472409781013 -0.002824782427062394 
-0.002824782427062394 -0.002824782427062394 -0.008937042794229681 -0.008937042794229681 -0.008937042794229681 0.001110757719330477 0.001110757719330477 0.001110757719330477 0.1996312922459842 
0.1996312922459842 0.1996312922459842 0.1911337538462902 0.1911337538462902 0.1911337538462902 0.179967180499423 0.179967180499423 0.179967180499423 0.1566068793755502 
0.1566068793755502 0.1566068793755502 0.1488197072304039 0.1488197072304039 0.1488197072304039 0.1527827621552228 0.1527827621552228 0.1527827621552228 -0.1150835086385456 
-0.1150835086385456 -0.1150835086385456 -0.1197256824250131 -0.1197256824250131 -0.1197256824250131 -0.2092490484111166 -0.2092490484111166 -0.2092490484111166 -0.2146190717449527 
-0.2146190717449527 -0.2146190717449527 0.07634821050369506 0.07634821050369506 0.07634821050369506 0.0676359090693 0.0676359090693 0.0676359090693 0.2079455377687226 
0.2079455377687226 0.2079455377687226 0.2000193338416337 0.2000193338416337 0.2000193338416337 -0.3222931532151937 -0.3222931532151937 -0.3222931532151937 -0.3402096759918203 
-0.3402096759918203 -0.3402096759918203 -0.05960005707221886 -0.05960005707221886 -0.05960005707221886 -0.04822215543804679 -0.04822215543804679 -0.04822215543804679 0.2071910234631344 
0.2071910234631344 0.2071910234631344 0.217065556210739 0.217065556210739 0.217065556210739 -0.8061971286242127 -0.8061971286242127 -0.8061971286242127 -0.7964339539790646 
-0.7964339539790646 -0.7964339539790646 0.1109071941901055 0.1109071941901055 0.1109071941901055 0.1192655008039861 0.1192655008039861 0.1192655008039861 0.8000810290437099 
0.8000810290437099 0.8000810290437099 0.81180838125509 0.81180838125509 0.81180838125509 0.2523825865516446 0.2523825865516446 0.2523825865516446 0.2696473542196189 
0.2696473542196189 0.2696473542196189 -0.6470358818054626 -0.6470358818054626 -0.6470358818054626 -0.6546780181154174 -0.6546780181154174 -0.6546780181154174 0.7126600867005186 
0.7126600867005186 0.7126600867005186 0.7154722112583963 0.7154722112583963 0.7154722112583963 -0.284403165394397 -0.284403165394397 -0.284403165394397 -0.2566942090799692 
-0.2566942090799692 -0.2566942090799692 -0.2733350366675599 -0.2733350366675599 -0.2733350366675599 -0.2545997558015075 -0.2545997558015075 -0.2545997558015075 0.150190875921885 
0.150190875921885 0.150190875921885 0.1508443195531228 0.1508443195531228 0.1508443195531228 0.8311042191522791 0.8311042191522791 0.8311042191522791 0.8387286124674198 
0.8387286124674198 0.8387286124674198 -0.1713799889576861 -0.1713799889576861 -0.1713799889576861 -0.1509802800953995 -0.1509802800953995 -0.1509802800953995 0.9216286056520941 
0.9216286056520941 0.9216286056520941 0.9185436210000405 0.9185436210000405 0.9185436210000405 0.8623425629160351 0.8623425629160351 0.8623425629160351 0.8534207118711562 
0.8534207118711562 0.8534207118711562 -0.0186869988359412 -0.0186869988359412 -0.0186869988359412 -0.02423671275022576 -0.02423671275022576 -0.02423671275022576 -0.3651585302318556 
-0.3651585302318556 -0.3651585302318556 -0.3430564438882627 -0.3430564438882627 -0.3430564438882627 0.3325668011527654 0.3325668011527654 0.3325668011527654 0.3444960712337262 
0.3444960712337262 0.3444960712337262 0.5064733143105205 0.5064733143105205 0.5064733143105205 0.4960300604167417 0.4960300604167417 0.4960300604167417 0.2511212655472953 
0.2511212655472953 0.2511212655472953 0.2378077395044477 0.2378077395044477 0.2378077395044477 0.3149775132413341 0.3149775132413341 0.3149775132413341 0.3213919294414176 
0.3213919294414176 0.3213919294414176 0.2119505043423834 0.2119505043423834 0.2119505043423834 0.2217298662393232 0.2217298662393232 0.2217298662393232 0.3127276615178777 
0.3127276615178777 0.3127276615178777 0.3015547451873902 0.3015547451873902 0.3015547451873902 0.7680634959773706 0.7680634959773706 0.7680634959773706 0.7618704063858448 
0.7618704063858448 0.7618704063858448 0.7056133619810283 0.7056133619810283 0.7056133619810283 0.7043106544022076 0.7043106544022076 0.7043106544022076 -0.06995972547329442 
-0.06995972547329442 -0.06995972547329442 -0.0721264800063208 -0.0721264800063208 -0.0721264800063208 -0.1450847323768588 -0.1450847323768588 -0.1450847323768588 -0.1328558850117447 
-0.1328558850117447 -0.1328558850117447 0.02400088826665681 0.02400088826665681 0.02400088826665681 0.0221560535464605 0.0221560535464605 0.0221560535464605 -0.02006243158503328 
-0.02006243158503328 -0.02006243158503328 -0.02110305297527264 -0.02110305297527264 -0.02110305297527264 0.07228036470318597 0.07228036470318597 0.07228036470318597 0.05431034496428154 
0.05431034496428154 0.05431034496428154 -0.1637311609915622 -0.1637311609915622 -0.1637311609915622 -0.1597614411311208 -0.1597614411311208 -0.1597614411311208 -0.1899737881460354 
-0.1899737881460354 -0.1899737881460354 -0.1943725971697963 -0.1943725971697963 -0.1943725971697963 0.6837472428464452 0.6837472428464452 0.6837472428464452 -0.631228880429054 
-0.631228880429054 -0.631228880429054 -0.6436793354658774 -0.6436793354658774 -0.6436793354658774 -0.133306311657811 -0.133306311657811 -0.133306311657811 -0.1266640172857605 
-0.1266640172857605 -0.1266640172857605 -0.158833464047795 -0.158833464047795 -0.158833464047795 -0.1721075048871896 -0.1721075048871896 -0.1721075048871896 0.7789049080399781 
0.7789049080399781 0.7789049080399781 0.7817978066611213 0.7817978066611213 0.7817978066611213 -0.6849888808648845 -0.6849888808648845 -0.6849888808648845 -0.6841754858839748 
-0.6841754858839748 -0.6841754858839748 -0.1622317046394564 -0.1622317046394564 -0.1622317046394564 -0.3815387006493502 -0.3815387006493502 -0.3815387006493502 -0.6864810612155188 
-0.6864810612155188 -0.6864810612155188 -0.7522139255102759 -0.7522139255102759 -0.7522139255102759 0.01641046478269706 0.01641046478269706 0.01641046478269706 -0.2021405974243762 
-0.2021405974243762 -0.2021405974243762 0.06833575072136656 0.06833575072136656 0.06833575072136656 0.2857392239258534 0.2857392239258534 0.2857392239258534 0.2741627571487856 
0.2741627571487856 0.2741627571487856 0.1905403585357495 0.1905403585357495 0.1905403585357495 -0.5826231594246911 -0.5826231594246911 -0.5826231594246911 -0.07510460643788995 
-0.07510460643788995 -0.07510460643788995 -0.06329850288595146 -0.06329850288595146 -0.06329850288595146 -0.2623340082221086 -0.2623340082221086 -0.2623340082221086 -0.2405543926688476 
-0.2405543926688476 -0.2405543926688476 0.8999811890692239 0.8999811890692239 0.8999811890692239 0.8935410981533523 0.8935410981533523 0.8935410981533523 0.8049425256123774 
0.8049425256123774 0.8049425256123774 0.8235041129692006 0.8235041129692006 0.8235041129692006 -0.6130207426233978 -0.6130207426233978 -0.6130207426233978 -0.6389256732922945 
-0.6389256732922945 -0.6389256732922945 0.296299820559608 0.296299820559608 0.296299820559608 0.322125342576718 0.322125342576718 0.322125342576718 -0.4634315864894317 
-0.4634315864894317 -0.4634315864894317 -0.4774611608611619 -0.4774611608611619 -0.4774611608611619 -0.5216641832649666 -0.5216641832649666 -0.5216641832649666 -0.528097955644016 
-0.528097955644016 -0.528097955644016 -0.1787564446338418 -0.1787564446338418 -0.1787564446338418 -0.1533733167453464 -0.1533733167453464 -0.1533733167453464 0.9336131900676969 
0.9336131900676969 0.9336131900676969 0.9323841134719197 0.9323841134719197 0.9323841134719197 -0.0448969202056866 -0.0448969202056866 -0.0448969202056866 -0.03686377085231392 
-0.03686377085231392 -0.03686377085231392 0.6237453173988073 0.6237453173988073 0.6237453173988073 0.6317804282465261 0.6317804282465261 0.6317804282465261 0.1143844779447966 
0.1143844779447966 0.1143844779447966 0.1208360753548046 0.1208360753548046 0.1208360753548046 -0.6828538878549001 -0.6828538878549001 -0.6828538878549001 -0.6789746377654829 
-0.6789746377654829 -0.6789746377654829 0.09828232300785805 0.09828232300785805 0.09828232300785805 0.07505990021527451 0.07505990021527451 0.07505990021527451 0.1640064524109566 
0.1640064524109566 0.1640064524109566 0.1682978836293607 0.1682978836293607 0.1682978836293607 -0.5711599383227581 -0.5711599383227581 -0.5711599383227581 -0.5479426969550333 
-0.5479426969550333 -0.5479426969550333 -0.6770987024015207 -0.6770987024015207 -0.6770987024015207 -0.6776351545675821 -0.6776351545675821 -0.6776351545675821 -0.923174828930582 
-0.923174828930582 -0.923174828930582 -0.9272011737312813 -0.9272011737312813 -0.9272011737312813 0.0526215315705243 0.0526215315705243 0.0526215315705243 0.05377099811660181 
0.05377099811660181 0.05377099811660181 0.6925798531305882 0.6925798531305882 0.6925798531305882 0.6762983656450406 0.6762983656450406 0.6762983656450406 0.05142664026646721 
0.05142664026646721 0.05142664026646721 0.0799190009522813 0.0799190009522813 0.0799190009522813 -0.7125441516151743 -0.7125441516151743 -0.7125441516151743 -0.712741323550806 
-0.712741323550806 -0.712741323550806 0.380000223465244 0.380000223465244 0.380000223465244 0.3749049370755012 0.3749049370755012 0.3749049370755012 0.01900612770148694 
0.01900612770148694 0.01900612770148694 0.008611429024188695 0.008611429024188695 0.008611429024188695 -0.161767127154525 -0.161767127154525 -0.161767127154525 -0.1589349696889337 
-0.1589349696889337 -0.1589349696889337 0.5575512346417859 0.5575512346417859 0.5575512346417859 0.5487623788500245 0.5487623788500245 0.5487623788500245 0.908718073220825 
0.908718073220825 0.908718073220825 0.9028269654713453 0.9028269654713453 0.9028269654713453 0.7284136676777595 0.7284136676777595 0.7284136676777595 0.7527278237145022 
0.7527278237145022 0.7527278237145022 -0.267792394324494 -0.267792394324494 -0.267792394324494 -0.2949807374487237 -0.2949807374487237 -0.2949807374487237 0.4651621029253351 
0.4651621029253351 0.4651621029253351 0.4910619936717069 0.4910619936717069 0.4910619936717069 0.5838650505724107 0.5838650505724107 0.5838650505724107 0.6106569723058776 
0.6106569723058776 0.6106569723058776 -0.08005822228010054 -0.08005822228010054 -0.08005822228010054 -0.06881418940308587 -0.06881418940308587 -0.06881418940308587 -0.6476893599657776 
-0.6476893599657776 -0.6476893599657776 -0.6672355113112092 -0.6672355113112092 -0.6672355113112092 0.6497501125428145 0.6497501125428145 0.6497501125428145 0.665951012815069 
0.665951012815069 0.665951012815069 -0.5289197978910787 -0.5289197978910787 -0.5289197978910787 -0.5100245654569731 -0.5100245654569731 -0.5100245654569731 0.3285865010544398 
0.3285865010544398 0.3285865010544398 0.3333107550427498 0.3333107550427498 0.3333107550427498 -0.2653330410094781 -0.2653330410094781 -0.2653330410094781 -0.2916660127448958 
-0.2916660127448958 -0.2916660127448958 0.04671711544826233 0.04671711544826233 0.04671711544826233 0.07516033915474354 0.07516033915474354 0.07516033915474354 -0.4219359754811226 
-0.4219359754811226 -0.4219359754811226 -0.4183300438686965 -0.4183300438686965 -0.4183300438686965 -0.8244015674151602 -0.8244015674151602 -0.8244015674151602 -0.8077614360189744 
-0.8077614360189744 -0.8077614360189744 0.0814997351841493 0.0814997351841493 0.0814997351841493 0.1092449993931004 0.1092449993931004 0.1092449993931004 -0.02150512101333358 
-0.02150512101333358 -0.02150512101333358 -0.01542987393289319 -0.01542987393289319 -0.01542987393289319 -0.7081206937955656 -0.7081206937955656 -0.7081206937955656 -0.7275829340958723 
-0.7275829340958723 -0.7275829340958723 -0.1714454048951152 -0.1714454048951152 -0.1714454048951152 -0.1793010302403644 -0.1793010302403644 -0.1793010302403644 0.3196573361441745 
0.3196573361441745 0.3196573361441745 0.3041907314459943 0.3041907314459943 0.3041907314459943 -0.04148025876085997 -0.04148025876085997 -0.04148025876085997 -0.05038284441805946 
-0.05038284441805946 -0.05038284441805946 -0.3653000619765135 -0.3653000619765135 -0.3653000619765135 -0.3909139050326461 -0.3909139050326461 -0.3909139050326461 0.1188627130816932 
0.1188627130816932 0.1188627130816932 0.123141190171337 0.123141190171337 0.123141190171337 -0.1691474262245373 -0.1691474262245373 -0.1691474262245373 -0.163268438236898 
-0.163268438236898 -0.163268438236898 0.06471290813378847 0.06471290813378847 0.06471290813378847 0.0342760537881478 0.0342760537881478 0.0342760537881478 0.2761308626621893 
0.2761308626621893 0.2761308626621893 0.2978240706977231 0.2978240706977231 0.2978240706977231 -0.09641861201629523 -0.09641861201629523 -0.09641861201629523 -0.07582417440012215 
-0.07582417440012215 -0.07582417440012215 0.1909568994430075 0.1909568994430075 0.1909568994430075 0.1950266247630662 0.1950266247630662 0.1950266247630662 -0.04560127929436122 
-0.04560127929436122 -0.04560127929436122 -0.0356121330467911 -0.0356121330467911 -0.0356121330467911 -0.1159055737899096 -0.1159055737899096 -0.1159055737899096 -0.1256866252478813 
-0.1256866252478813 -0.1256866252478813 -0.7255630853767956 -0.7255630853767956 -0.7255630853767956 -0.7410039730943336 -0.7410039730943336 -0.7410039730943336 0.2882616217943407 
0.2882616217943407 0.2882616217943407 0.2998265038992154 0.2998265038992154 0.2998265038992154 -0.5487825735380059 -0.5487825735380059 -0.5487825735380059 -0.5221922477815695 
-0.5221922477815695 -0.5221922477815695 -0.6639064017988431 -0.6639064017988431 -0.6639064017988431 -0.6611276813604756 -0.6611276813604756 -0.6611276813604756 -0.1198583473607504 
-0.1198583473607504 -0.1198583473607504 -0.1145145863465588 -0.1145145863465588 -0.1145145863465588 0.6400305337222698 0.6400305337222698 0.6400305337222698 0.664254160997921 
0.664254160997921 0.664254160997921 -0.5568612449791135 -0.5568612449791135 -0.5568612449791135 -0.5329233978503107 -0.5329233978503107 -0.5329233978503107 -0.3764868222826033 
-0.3764868222826033 -0.3764868222826033 -0.3891730512137757 -0.3891730512137757 -0.3891730512137757 0.2447304814746489 0.2447304814746489 0.2447304814746489 0.2797677631466448 
0.2797677631466448 0.2797677631466448 -0.02317432466133099 -0.02317432466133099 -0.02317432466133099 -0.02061867284231708 -0.02061867284231708 -0.02061867284231708 0.2875823840952143 
0.2875823840952143 0.2875823840952143 0.261062504872998 0.261062504872998 0.261062504872998 -0.1308815567898206 -0.1308815567898206 -0.1308815567898206 -0.1305375036514666 
-0.1305375036514666 -0.1305375036514666 -0.150188825261736 -0.150188825261736 -0.150188825261736 -0.1544330745448413 -0.1544330745448413 -0.1544330745448413 -0.2173219756199334 
-0.2173219756199334 -0.2173219756199334 -0.2094992710640913 -0.2094992710640913 -0.2094992710640913 -0.2281305638042087 -0.2281305638042087 -0.2281305638042087 -0.3045840789954535 
-0.3045840789954535 -0.3045840789954535 -0.2616956537359144 -0.2616956537359144 -0.2616956537359144 -0.2570695054958371 -0.2570695054958371 -0.2570695054958371 -0.2353172754987049 
-0.2353172754987049 -0.2353172754987049 0.9097881033058971 0.9097881033058971 0.9097881033058971 0.9096069569318346 0.9096069569318346 0.9096069569318346 0.9154348711143211 
0.9154348711143211 0.9154348711143211 0.4742614909071808 0.4742614909071808 0.4742614909071808 0.4791237093262942 0.4791237093262942 0.4791237093262942 0.4616399104314781 
0.4616399104314781 0.4616399104314781 0.3747998885030762 0.3747998885030762 0.3747998885030762 0.3936980377313577 0.3936980377313577 0.3936980377313577 0.3886290709861616 
0.3886290709861616 0.3886290709861616 0.1519665456963038 0.1519665456963038 0.1519665456963038 0.1630909078496084 0.1630909078496084 0.1630909078496084 0.175156343993371 
0.175156343993371 0.175156343993371 0.1527388417312544 0.1527388417312544 0.1527388417312544 0.1436513090082118 0.1436513090082118 0.1436513090082118 0.1207565257486937 
0.1207565257486937 0.1207565257486937 0.1623585230426152 0.1623585230426152 0.1623585230426152 0.1686788759107284 0.1686788759107284 0.1686788759107284 0.1828429230709385 
0.1828429230709385 0.1828429230709385 -0.7973663522079258 -0.7973663522079258 -0.7973663522079258 -0.7788216922848662 -0.7788216922848662 -0.7788216922848662 -0.7727878582989379 
-0.7727878582989379 -0.7727878582989379 -0.5947919869340578 -0.5947919869340578 -0.5947919869340578 -0.6066136558993002 -0.6066136558993002 -0.6066136558993002 -0.6149722047877727 
-0.6149722047877727 -0.6149722047877727 -0.793446946442269 -0.793446946442269 -0.793446946442269 -0.7902063270599534 -0.7902063270599534 -0.7902063270599534 -0.8020956070289309 
-0.8020956070289309 -0.8020956070289309 -0.2398622804378455 -0.2398622804378455 -0.2398622804378455 -0.2460005401805501 -0.2460005401805501 -0.2460005401805501 0.9179808110625647 
0.9179808110625647 0.9179808110625647 0.9151905897711848 0.9151905897711848 0.9151905897711848 0.9104534188426304 0.9104534188426304 0.9104534188426304 -0.214292186523681 
-0.214292186523681 -0.214292186523681 -0.2026910686821375 -0.2026910686821375 -0.2026910686821375 -0.1831827934394165 -0.1831827934394165 -0.1831827934394165 0.005420056680390658 
0.005420056680390658 0.005420056680390658 -0.002981018623323443 -0.002981018623323443 -0.002981018623323443 0.001916070539616147 0.001916070539616147 0.001916070539616147 0.09287797846417423 
0.09287797846417423 0.09287797846417423 0.08477106787308569 0.08477106787308569 0.08477106787308569 0.07506413510077112 0.07506413510077112 0.07506413510077112 -0.009669564701736664 
-0.009669564701736664 -0.009669564701736664 -0.01936094792049447 -0.01936094792049447 -0.01936094792049447 -0.03201787329625841 -0.03201787329625841 -0.03201787329625841 0.8223585665710846 
0.8223585665710846 0.8223585665710846 0.8279860140017152 0.8279860140017152 0.8279860140017152 0.8334716860852202 0.8334716860852202 0.8334716860852202 -0.2755667640301 
-0.2755667640301 -0.2755667640301 -0.2649866804392239 -0.2649866804392239 -0.2649866804392239 0.713643816464869 0.713643816464869 0.713643816464869 0.7020358911162179 
0.7020358911162179 0.7020358911162179 -0.03072169398895403 -0.03072169398895403 -0.03072169398895403 -0.03280692703397579 -0.03280692703397579 -0.03280692703397579 0.8011219479663656 
0.8011219479663656 0.8011219479663656 0.8069677415115397 0.8069677415115397 0.8069677415115397 0.8897524402262511 0.8897524402262511 0.8897524402262511 0.8924707367662712 
0.8924707367662712 0.8924707367662712 -0.03412565091102714 -0.03412565091102714 -0.03412565091102714 -0.04013384387014558 -0.04013384387014558 -0.04013384387014558 0.4107146142164213 
0.4107146142164213 0.4107146142164213 0.4016529214094217 0.4016529214094217 0.4016529214094217 -0.4839486107829428 -0.4839486107829428 -0.4839486107829428 -0.4965836989711055 
-0.4965836989711055 -0.4965836989711055 0.002170145063711274 0.002170145063711274 0.002170145063711274 0.008929950731954205 0.008929950731954205 0.008929950731954205 0.7648177723926313 
0.7648177723926313 0.7648177723926313 0.7572054523568578 0.7572054523568578 0.7572054523568578 0.4845466662763396 0.4845466662763396 0.4845466662763396 0.4787924294657021 
0.4787924294657021 0.4787924294657021 0.1232382524679359 0.1232382524679359 0.1232382524679359 0.1047316022855624 0.1047316022855624 0.1047316022855624 -0.6790578843221385 
-0.6790578843221385 -0.6790578843221385 -0.6811174157672762 -0.6811174157672762 -0.6811174157672762 -0.0008702804934470393 -0.0008702804934470393 -0.0008702804934470393 0.0130822392795322 
0.0130822392795322 0.0130822392795322 0.6791939336949717 0.6791939336949717 0.6791939336949717 0.690183614792464 0.690183614792464 0.690183614792464 -0.006545138328887548 
-0.006545138328887548 -0.006545138328887548 -0.01614046421492791 -0.01614046421492791 -0.01614046421492791 -0.3129503855827954 -0.3129503855827954 -0.3129503855827954 -0.3249635346921002 
-0.3249635346921002 -0.3249635346921002 -0.6341082841741539 -0.6341082841741539 -0.6341082841741539 -0.63628213979093 -0.63628213979093 -0.63628213979093 0.6435245538938323 
0.6435245538938323 0.6435245538938323 0.6558773658372538 0.6558773658372538 0.6558773658372538 -0.3905109338188913 -0.3905109338188913 -0.3905109338188913 -0.3996294118571448 
-0.3996294118571448 -0.3996294118571448 -0.479118219277781 -0.479118219277781 -0.479118219277781 -0.4570490327943848 -0.4570490327943848 -0.4570490327943848 0.1596031174828156 
0.1596031174828156 0.1596031174828156 0.1669148979428463 0.1669148979428463 0.1669148979428463 -0.1040598576279361 -0.1040598576279361 -0.1040598576279361 -0.1343765895351303 
-0.1343765895351303 -0.1343765895351303 -0.2696409306131389 -0.2696409306131389 -0.2696409306131389 -0.2799447428268984 -0.2799447428268984 -0.2799447428268984 0.004719786261390408 
0.004719786261390408 0.004719786261390408 -0.01758214004601773 -0.01758214004601773 -0.01758214004601773 0.4602107421679298 0.4602107421679298 0.4602107421679298 0.4458579943813743 
0.4458579943813743 0.4458579943813743 0.2764840193913676 0.2764840193913676 0.2764840193913676 0.2971171183930143 0.2971171183930143 0.2971171183930143 -0.09039292635726949 
-0.09039292635726949 -0.09039292635726949 -0.1016791528032252 -0.1016791528032252 -0.1016791528032252 0.6247666577227647 0.6247666577227647 0.6247666577227647 0.6137215229996653 
0.6137215229996653 0.6137215229996653 -0.4652913060321758 -0.4652913060321758 -0.4652913060321758 -0.4756660719435276 -0.4756660719435276 -0.4756660719435276 0.4043058792924188 
0.4043058792924188 0.4043058792924188 0.4175092498376461 0.4175092498376461 0.4175092498376461 -0.2981947350423721 -0.2981947350423721 -0.2981947350423721 -0.3022037534597151 
-0.3022037534597151 -0.3022037534597151 -0.7003654441941746 -0.7003654441941746 -0.7003654441941746 -0.6971283072039851 -0.6971283072039851 -0.6971283072039851 -0.2502554398491769 
-0.2502554398491769 -0.2502554398491769 -0.2674900986670738 -0.2674900986670738 -0.2674900986670738 0.8316553647635737 0.8316553647635737 0.8316553647635737 0.8293847014841256 
0.8293847014841256 0.8293847014841256 0.03718920162500075 0.03718920162500075 0.03718920162500075 0.03348383466577109 0.03348383466577109 0.03348383466577109 0.07475457021771234 
0.07475457021771234 0.07475457021771234 0.06047039883450837 0.06047039883450837 0.06047039883450837 0.0619071963424592 0.0619071963424592 0.0619071963424592 0.04500848349046768 
0.04500848349046768 0.04500848349046768 -0.1739809587090872 -0.1739809587090872 -0.1739809587090872 -0.1951543777547856 -0.1951543777547856 -0.1951543777547856 0.7505241378817982 
0.7505241378817982 0.7505241378817982 0.7396478503386277 0.7396478503386277 0.7396478503386277 0.06995960708235552 0.06995960708235552 0.06995960708235552 0.05581305903243901 
0.05581305903243901 0.05581305903243901 -0.1525066311274199 -0.1525066311274199 -0.1525066311274199 -0.1505682535481995 -0.1505682535481995 -0.1505682535481995 0.05394048135386337 
0.05394048135386337 0.05394048135386337 0.05928812783936097 0.05928812783936097 0.05928812783936097 0.1465665838751389 0.1465665838751389 0.1465665838751389 0.1481574872977977 
0.1481574872977977 0.1481574872977977 -0.5975590586226996 -0.5975590586226996 -0.5975590586226996 -0.6173831871611111 -0.6173831871611111 -0.6173831871611111 -0.0464793040247895 
-0.0464793040247895 -0.0464793040247895 -0.03755063029476001 -0.03755063029476001 -0.03755063029476001 0.005346258677043031 0.005346258677043031 0.005346258677043031 0.0129176745189087 
0.0129176745189087 0.0129176745189087 -0.5513502803496662 -0.5513502803496662 -0.5513502803496662 -0.5785989514985641 -0.5785989514985641 -0.5785989514985641 0.1414661663861203 
0.1414661663861203 0.1414661663861203 0.1566943732957322 0.1566943732957322 0.1566943732957322 -0.3170152851268994 -0.3170152851268994 -0.3170152851268994 -0.3250612675454976 
-0.3250612675454976 -0.3250612675454976 0.01222517406537498 0.01222517406537498 0.01222517406537498 0.0388505176332285 0.0388505176332285 0.0388505176332285 0.8658433110522324 
0.8658433110522324 0.8658433110522324 0.8579445383562685 0.8579445383562685 0.8579445383562685 -0.03815329547841529 -0.03815329547841529 -0.03815329547841529 -0.05015010483185398 
-0.05015010483185398 -0.05015010483185398 0.1950973699711996 0.1950973699711996 0.1950973699711996 0.2057497740435874 0.2057497740435874 0.2057497740435874 0.9137595781369884 
0.9137595781369884 0.9137595781369884 0.90979098499911 0.90979098499911 0.90979098499911 -0.2569915042875154 -0.2569915042875154 -0.2569915042875154 -0.2462038930370266 
-0.2462038930370266 -0.2462038930370266 0.6138662562458648 0.6138662562458648 0.6138662562458648 0.6043839552205329 0.6043839552205329 0.6043839552205329 -0.2327204138247652 
-0.2327204138247652 -0.2327204138247652 -0.2214815920124005 -0.2214815920124005 -0.2214815920124005 -0.3788925239366517 -0.3788925239366517 -0.3788925239366517 -0.369547029699766 
-0.369547029699766 -0.369547029699766 -0.7848580846261086 -0.7848580846261086 -0.7848580846261086 -0.7869891472022414 -0.7869891472022414 -0.7869891472022414 -0.5361546741890328 
-0.5361546741890328 -0.5361546741890328 -0.5274673249766002 -0.5274673249766002 -0.5274673249766002 0.2658934489054999 0.2658934489054999 0.2658934489054999 0.2699322432181049 
0.2699322432181049 0.2699322432181049 0.02758047054799308 0.02758047054799308 0.02758047054799308 0.02533121553513656 0.02533121553513656 0.02533121553513656 -0.6658556683249099 
-0.6658556683249099 -0.6658556683249099 -0.6637275884467042 -0.6637275884467042 -0.6637275884467042 0.524952105077559 0.524952105077559 0.524952105077559 0.5332487897424844 
0.5332487897424844 0.5332487897424844 -0.06290140379320575 -0.06290140379320575 -0.06290140379320575 -0.06655913433340283 -0.06655913433340283 -0.06655913433340283 0.9026698684763712 
0.9026698684763712 0.9026698684763712 0.9083160156858386 0.9083160156858386 0.9083160156858386 0.07381615338134989 0.07381615338134989 0.07381615338134989 0.07279257995103112 
0.07279257995103112 0.07279257995103112 -0.942942531436243 -0.942942531436243 -0.942942531436243 -0.943303686900043 -0.943303686900043 -0.943303686900043 0.6131143547447937 
0.6131143547447937 0.6131143547447937 0.6297991813256074 0.6297991813256074 0.6297991813256074 -0.03833716746008211 -0.03833716746008211 -0.03833716746008211 -0.03577122618895159 
-0.03577122618895159 -0.03577122618895159 0.1918598071052138 0.1918598071052138 0.1918598071052138 0.1868643860172761 0.1868643860172761 0.1868643860172761 0.6508970662088469 
0.6508970662088469 0.6508970662088469 0.6630156420183602 0.6630156420183602 0.6630156420183602 0.03865051464535869 0.03865051464535869 0.03865051464535869 0.05828992173857406 
0.05828992173857406 0.05828992173857406 -0.9337694828242069 -0.9337694828242069 -0.9337694828242069 -0.9342913912176543 -0.9342913912176543 -0.9342913912176543 0.6685969795808254 
0.6685969795808254 0.6685969795808254 0.6775480315219982 0.6775480315219982 0.6775480315219982 0.7876158790038349 0.7876158790038349 0.7876158790038349 0.799611829456247 
0.799611829456247 0.799611829456247 -0.4063642151112641 -0.4063642151112641 -0.4063642151112641 -0.4152841521570263 -0.4152841521570263 -0.4152841521570263 -0.2467909872092288 
-0.2467909872092288 -0.2467909872092288 -0.2390871763977071 -0.2390871763977071 -0.2390871763977071 -0.05029364777284634 -0.05029364777284634 -0.05029364777284634 -0.05627445533322517 
-0.05627445533322517 -0.05627445533322517 0.49025563349974 0.49025563349974 0.49025563349974 0.4809580189680194 0.4809580189680194 0.4809580189680194 -0.2123672687609703 
-0.2123672687609703 -0.2123672687609703 -0.2294742883463736 -0.2294742883463736 -0.2294742883463736 0.177970739696131 0.177970739696131 0.177970739696131 0.1738135631668155 
0.1738135631668155 0.1738135631668155 0.3271836220607333 0.3271836220607333 0.3271836220607333 0.3143424538006223 0.3143424538006223 0.3143424538006223 -0.2736601239320214 
-0.2736601239320214 -0.2736601239320214 -0.2531806313543397 -0.2531806313543397 -0.2531806313543397 0.1248929828958441 0.1248929828958441 0.1248929828958441 0.1059355601665209 
0.1059355601665209 0.1059355601665209 0.3103805472602333 0.3103805472602333 0.3103805472602333 0.3157214665234953 0.3157214665234953 0.3157214665234953 -0.3795776964704568 
-0.3795776964704568 -0.3795776964704568 -0.3647259532844044 -0.3647259532844044 -0.3647259532844044 0.6720546344437605 0.6720546344437605 0.6720546344437605 0.6785607802869271 
0.6785607802869271 0.6785607802869271 -0.6176051329613849 -0.6176051329613849 -0.6176051329613849 -0.6140394453951288 -0.6140394453951288 -0.6140394453951288 -0.7690496585354898 
-0.7690496585354898 -0.7690496585354898 -0.7592485547425719 -0.7592485547425719 -0.7592485547425719 0.8316020330501195 0.8316020330501195 0.8316020330501195 0.835676836210515 
0.835676836210515 0.835676836210515 -0.6604105688971316 -0.6604105688971316 -0.6604105688971316 -0.6707702187312786 -0.6707702187312786 -0.6707702187312786 0.1710048085307109 
0.1710048085307109 0.1710048085307109 0.1616492379519313 0.1616492379519313 0.1616492379519313 -0.5227929972954983 -0.5227929972954983 -0.5227929972954983 -0.5254424466391279 
-0.5254424466391279 -0.5254424466391279 -0.8336811631247629 -0.8336811631247629 -0.8336811631247629 -0.8366863006763966 -0.8366863006763966 -0.8366863006763966 0.6578144700721303 
0.6578144700721303 0.6578144700721303 0.649716087341411 0.649716087341411 0.649716087341411 0.2352172183817353 0.2352172183817353 0.2352172183817353 0.2438148644731595 
0.2438148644731595 0.2438148644731595 0.4496495506428406 0.4496495506428406 0.4496495506428406 0.4367904839150996 0.4367904839150996 0.4367904839150996 -0.1110701726538074 