Title = Triangle150
FileType = Solution
Variables = q
Zone T = Triangle150
ZoneType = FETriangle
Nodes = 212082
Elements = 70694
DataPacking = Block
StrandID = 11
SolutionTime = 1
-0.756262011358691 -0.756262011358691 -0.756262011358691 -0.7472386718589941 -0.7472386718589941 -0.7472386718589941 -0.7406950458335168 -0.7406950458335168 -0.7406950458335168 0.9071945702379077 
0.9071945702379077 0.9071945702379077 0.9048464115038628 0.9048464115038628 0.9048464115038628 0.9039467029770574 0.9039467029770574 0.9039467029770574 -0.3596651327551194 
-0.3596651327551194 -0.3596651327551194 -0.3422844712414657 -0.3422844712414657 -0.3422844712414657 -0.3297647986128256 -0.3297647986128256 -0.3297647986128256 -0.6406142852285921 
-0.6406142852285921 -0.6406142852285921 -0.6312757967463466 -0.6312757967463466 -0.6312757967463466 -0.6182201910454322 -0.6182201910454322 -0.6182201910454322 0.2213476085054492 
0.2213476085054492 0.2213476085054492 0.2170824899585146 0.2170824899585146 0.2170824899585146 0.2242203625993052 0.2242203625993052 0.2242203625993052 0.3331943082529519 
0.3331943082529519 0.3331943082529519 0.3220562209449289 0.3220562209449289 0.3220562209449289 0.3104634957980389 0.3104634957980389 0.3104634957980389 -0.2713270088079638 
-0.2713270088079638 -0.2713270088079638 -0.2810973595854001 -0.2810973595854001 -0.2810973595854001 0.1015904928684365 0.1015904928684365 0.1015904928684365 0.09769904150213982 
0.09769904150213982 0.09769904150213982 -0.4320423044628195 -0.4320423044628195 -0.4320423044628195 -0.4407247226917609 -0.4407247226917609 -0.4407247226917609 -0.6551378566866626 
-0.6551378566866626 -0.6551378566866626 -0.6462401088622569 -0.6462401088622569 -0.6462401088622569 0.3045423630267292 0.3045423630267292 0.3045423630267292 0.3118615409188314 
0.3118615409188314 0.3118615409188314 0.2683389091794655 0.2683389091794655 0.2683389091794655 0.2871089413867868 0.2871089413867868 0.2871089413867868 0.2841563754818845 
0.2841563754818845 0.2841563754818845 0.2735214871655253 0.2735214871655253 0.2735214871655253 -0.03279790751850825 -0.03279790751850825 -0.03279790751850825 -0.04069368447433128 
-0.04069368447433128 -0.04069368447433128 -0.1583579216978033 -0.1583579216978033 -0.1583579216978033 -0.1505368816740247 -0.1505368816740247 -0.1505368816740247 0.06107951187938374 
0.06107951187938374 0.06107951187938374 0.06050701579764675 0.06050701579764675 0.06050701579764675 -0.3249408868035662 -0.3249408868035662 -0.3249408868035662 -0.3341278940636907 
-0.3341278940636907 -0.3341278940636907 0.01126112850401948 0.01126112850401948 0.01126112850401948 0.01279958786145887 0.01279958786145887 0.01279958786145887 -0.700642183923821 
-0.700642183923821 -0.700642183923821 -0.7011540464419854 -0.7011540464419854 -0.7011540464419854 -0.6079768228913127 -0.6079768228913127 -0.6079768228913127 -0.6183953026467195 
-0.6183953026467195 -0.6183953026467195 0.6275277040169502 0.6275277040169502 0.6275277040169502 0.6238393913530618 0.6238393913530618 0.6238393913530618 -0.5699542999652718 
-0.5699542999652718 -0.5699542999652718 -0.5587528740848671 -0.5587528740848671 -0.5587528740848671 0.1491919760716843 0.1491919760716843 0.1491919760716843 0.140737711719943 
0.140737711719943 0.140737711719943 -0.1314107332064625 -0.1314107332064625 -0.1314107332064625 -0.1310547772076959 -0.1310547772076959 -0.1310547772076959 -0.3166327699230496 
-0.3166327699230496 -0.3166327699230496 -0.3128651419552989 -0.3128651419552989 -0.3128651419552989 0.085067071261565 0.085067071261565 0.085067071261565 0.09540517154150774 
0.09540517154150774 0.09540517154150774 -0.4019197213288322 -0.4019197213288322 -0.4019197213288322 -0.4180573222451672 -0.4180573222451672 -0.4180573222451672 0.2542045083257043 
0.2542045083257043 0.2542045083257043 0.254080019868012 0.254080019868012 0.254080019868012 0.1400639087233479 0.1400639087233479 0.1400639087233479 0.1287095608087843 
0.1287095608087843 0.1287095608087843 -0.1918008557412886 -0.1918008557412886 -0.1918008557412886 -0.1858913916585814 -0.1858913916585814 -0.1858913916585814 0.1249541564428563 
0.1249541564428563 0.1249541564428563 0.1096417134031476 0.1096417134031476 0.1096417134031476 -0.4539174073210768 -0.4539174073210768 -0.4539174073210768 -0.4633044933278468 
-0.4633044933278468 -0.4633044933278468 0.2684307253851685 0.2684307253851685 0.2684307253851685 0.2596182943390456 0.2596182943390456 0.2596182943390456 -0.1189628829234796 
-0.1189628829234796 -0.1189628829234796 -0.1093745222027706 -0.1093745222027706 -0.1093745222027706 0.1791763811803777 0.1791763811803777 0.1791763811803777 0.1843873667533699 
0.1843873667533699 0.1843873667533699 0.05254852798377685 0.05254852798377685 0.05254852798377685 0.05752512668697444 0.05752512668697444 0.05752512668697444 0.7300529390874351 
0.7300529390874351 0.7300529390874351 0.7377720577503212 0.7377720577503212 0.7377720577503212 0.006612370087244166 0.006612370087244166 0.006612370087244166 0.002674274240621707 
0.002674274240621707 0.002674274240621707 0.4888987865263916 0.4888987865263916 0.4888987865263916 0.5047311009046893 0.5047311009046893 0.5047311009046893 -0.4752004710693374 
-0.4752004710693374 -0.4752004710693374 -0.4671834508156308 -0.4671834508156308 -0.4671834508156308 0.06485316004288599 0.06485316004288599 0.06485316004288599 0.06626602196795892 
0.06626602196795892 0.06626602196795892 -0.02363441639234778 -0.02363441639234778 -0.02363441639234778 -0.0316779927667684 -0.0316779927667684 -0.0316779927667684 0.1183330614283981 
0.1183330614283981 0.1183330614283981 0.1146020044689123 0.1146020044689123 0.1146020044689123 -0.7308476373747391 -0.7308476373747391 -0.7308476373747391 0.00150887364226059 
0.00150887364226059 0.00150887364226059 0.005586227244423455 0.005586227244423455 0.005586227244423455 -0.1147299493649546 -0.1147299493649546 -0.1147299493649546 -0.1288779170162262 
-0.1288779170162262 -0.1288779170162262 0.3699977999643187 0.3699977999643187 0.3699977999643187 0.3787214480115476 0.3787214480115476 0.3787214480115476 0.05075649407769527 
0.05075649407769527 0.05075649407769527 0.05367073317965655 0.05367073317965655 0.05367073317965655 0.7442274161896775 0.7442274161896775 0.7442274161896775 0.745195581249536 
0.745195581249536 0.745195581249536 -0.1539773081353762 -0.1539773081353762 -0.1539773081353762 0.5576986882564543 0.5576986882564543 0.5576986882564543 -0.1850201727568274 
-0.1850201727568274 -0.1850201727568274 0.2958455755995996 0.2958455755995996 0.2958455755995996 0.5132875974186288 0.5132875974186288 0.5132875974186288 0.6561423154299382 
0.6561423154299382 0.6561423154299382 -0.2547806783307225 -0.2547806783307225 -0.2547806783307225 -0.04870223827250347 -0.04870223827250347 -0.04870223827250347 -0.5459487752486455 
-0.5459487752486455 -0.5459487752486455 0.2802733681577895 0.2802733681577895 0.2802733681577895 -0.01744633813395796 -0.01744633813395796 -0.01744633813395796 0.5698208946421066 
0.5698208946421066 0.5698208946421066 0.5926734559969016 0.5926734559969016 0.5926734559969016 -0.3410756589820504 -0.3410756589820504 -0.3410756589820504 -0.3486085816919917 
-0.3486085816919917 -0.3486085816919917 -0.4568544181320984 -0.4568544181320984 -0.4568544181320984 -0.4716623413453219 -0.4716623413453219 -0.4716623413453219 -0.5643662241798052 
-0.5643662241798052 -0.5643662241798052 -0.5446383442856347 -0.5446383442856347 -0.5446383442856347 0.5670375917277994 0.5670375917277994 0.5670375917277994 0.5472834613761647 
0.5472834613761647 0.5472834613761647 -0.6712223497007874 -0.6712223497007874 -0.6712223497007874 -0.6807421021823676 -0.6807421021823676 -0.6807421021823676 -0.5643778869102287 
-0.5643778869102287 -0.5643778869102287 -0.5600770844949388 -0.5600770844949388 -0.5600770844949388 0.8492148457757216 0.8492148457757216 0.8492148457757216 0.8434537119909786 
0.8434537119909786 0.8434537119909786 0.6410628813031316 0.6410628813031316 0.6410628813031316 0.6557049225493609 0.6557049225493609 0.6557049225493609 -0.1630668778860223 
-0.1630668778860223 -0.1630668778860223 -0.1924131082339866 -0.1924131082339866 -0.1924131082339866 -0.1239851705869471 -0.1239851705869471 -0.1239851705869471 -0.150772861746253 
-0.150772861746253 -0.150772861746253 -0.1438446572420559 -0.1438446572420559 -0.1438446572420559 -0.1073569695128807 -0.1073569695128807 -0.1073569695128807 0.3511669075171993 
0.3511669075171993 0.3511669075171993 0.3780819849664553 0.3780819849664553 0.3780819849664553 -0.3080883774133704 -0.3080883774133704 -0.3080883774133704 -0.3328900168205416 
-0.3328900168205416 -0.3328900168205416 0.3532768085492933 0.3532768085492933 0.3532768085492933 0.3779839710947302 0.3779839710947302 0.3779839710947302 -0.1275806182906406 
-0.1275806182906406 -0.1275806182906406 -0.1306123678767038 -0.1306123678767038 -0.1306123678767038 -0.3100118494698774 -0.3100118494698774 -0.3100118494698774 -0.3220821801031348 
-0.3220821801031348 -0.3220821801031348 -0.158470845696904 -0.158470845696904 -0.158470845696904 -0.144428714358193 -0.144428714358193 -0.144428714358193 0.3343875753524368 
0.3343875753524368 0.3343875753524368 0.3091877121391781 0.3091877121391781 0.3091877121391781 0.8528987686831675 0.8528987686831675 0.8528987686831675 0.8538374209326773 
0.8538374209326773 0.8538374209326773 -0.2628956101522353 -0.2628956101522353 -0.2628956101522353 -0.2769722873220601 -0.2769722873220601 -0.2769722873220601 0.599615788978625 
0.599615788978625 0.599615788978625 0.5894778241379317 0.5894778241379317 0.5894778241379317 0.6840712780208966 0.6840712780208966 0.6840712780208966 0.6736544280116843 
0.6736544280116843 0.6736544280116843 -0.8570375455674064 -0.8570375455674064 -0.8570375455674064 -0.8475920473215914 -0.8475920473215914 -0.8475920473215914 -0.5859276666554687 
-0.5859276666554687 -0.5859276666554687 -0.5757462881099176 -0.5757462881099176 -0.5757462881099176 0.2824729230586535 0.2824729230586535 0.2824729230586535 0.2953803816477786 
0.2953803816477786 0.2953803816477786 -0.830584914658867 -0.830584914658867 -0.830584914658867 -0.8369203697187277 -0.8369203697187277 -0.8369203697187277 -0.4347312180310026 
-0.4347312180310026 -0.4347312180310026 -0.4518538352528914 -0.4518538352528914 -0.4518538352528914 -0.6971160554048922 -0.6971160554048922 -0.6971160554048922 -0.6700435332917617 
-0.6700435332917617 -0.6700435332917617 -0.5799108208730157 -0.5799108208730157 -0.5799108208730157 -0.5721060889945966 -0.5721060889945966 -0.5721060889945966 0.07226667885633731 
0.07226667885633731 0.07226667885633731 0.05400006069489488 0.05400006069489488 0.05400006069489488 -0.5540211032113938 -0.5540211032113938 -0.5540211032113938 -0.5415787558339594 
-0.5415787558339594 -0.5415787558339594 -0.4215851221763353 -0.4215851221763353 -0.4215851221763353 -0.4282894976556622 -0.4282894976556622 -0.4282894976556622 -0.1489626078974297 
-0.1489626078974297 -0.1489626078974297 -0.1408563821470281 -0.1408563821470281 -0.1408563821470281 0.233800899834233 0.233800899834233 0.233800899834233 0.2346383191027276 
0.2346383191027276 0.2346383191027276 0.8142525010468084 0.8142525010468084 0.8142525010468084 0.8141861504551976 0.8141861504551976 0.8141861504551976 -0.0199143992549097 
-0.0199143992549097 -0.0199143992549097 -0.01260819567725724 -0.01260819567725724 -0.01260819567725724 0.06306953776847295 0.06306953776847295 0.06306953776847295 0.05836095599524432 
0.05836095599524432 0.05836095599524432 0.6878744241195205 0.6878744241195205 0.6878744241195205 0.6873599811849541 0.6873599811849541 0.6873599811849541 0.080891526501812 
0.080891526501812 0.080891526501812 0.06524107474359546 0.06524107474359546 0.06524107474359546 0.04581265066145316 0.04581265066145316 0.04581265066145316 0.04513965248293829 
0.04513965248293829 0.04513965248293829 -0.726087721945278 -0.726087721945278 -0.726087721945278 -0.7171055408713004 -0.7171055408713004 -0.7171055408713004 0.5285932197922176 
0.5285932197922176 0.5285932197922176 0.5132815585919028 0.5132815585919028 0.5132815585919028 0.6923448954036098 0.6923448954036098 0.6923448954036098 0.6739034771487394 
0.6739034771487394 0.6739034771487394 -0.6351175089302656 -0.6351175089302656 -0.6351175089302656 -0.6502614099410282 -0.6502614099410282 -0.6502614099410282 -0.2088665838102799 
-0.2088665838102799 -0.2088665838102799 -0.179369608329974 -0.179369608329974 -0.179369608329974 -0.5510719314739885 -0.5510719314739885 -0.5510719314739885 -0.5647283910485061 
-0.5647283910485061 -0.5647283910485061 0.1695135915816396 0.1695135915816396 0.1695135915816396 0.181034067213226 0.181034067213226 0.181034067213226 0.3495625544810639 
0.3495625544810639 0.3495625544810639 0.3392940919068507 0.3392940919068507 0.3392940919068507 -0.664433617028389 -0.664433617028389 -0.664433617028389 -0.6455141706486989 
-0.6455141706486989 -0.6455141706486989 -0.2967785808019981 -0.2967785808019981 -0.2967785808019981 -0.2930434740098599 -0.2930434740098599 -0.2930434740098599 -0.03969433632137925 
-0.03969433632137925 -0.03969433632137925 -0.02688366083908053 -0.02688366083908053 -0.02688366083908053 -0.4841865645867613 -0.4841865645867613 -0.4841865645867613 -0.5058397199045821 
-0.5058397199045821 -0.5058397199045821 0.5343422830773795 0.5343422830773795 0.5343422830773795 0.5646956087040158 0.5646956087040158 0.5646956087040158 -0.4884862740927197 
-0.4884862740927197 -0.4884862740927197 -0.474774609525031 -0.474774609525031 -0.474774609525031 0.839090743077493 0.839090743077493 0.839090743077493 0.8494649491928676 
0.8494649491928676 0.8494649491928676 0.2014463570904576 0.2014463570904576 0.2014463570904576 0.22522438141085 0.22522438141085 0.22522438141085 -0.8930979576815945 
-0.8930979576815945 -0.8930979576815945 -0.8994717067413248 -0.8994717067413248 -0.8994717067413248 -0.02418603912304737 -0.02418603912304737 -0.02418603912304737 -0.04031184235685904 
-0.04031184235685904 -0.04031184235685904 0.7408360738240176 0.7408360738240176 0.7408360738240176 0.7506035907697912 0.7506035907697912 0.7506035907697912 -0.1737951998797553 
-0.1737951998797553 -0.1737951998797553 -0.203873252843122 -0.203873252843122 -0.203873252843122 -0.1455535372528091 -0.1455535372528091 -0.1455535372528091 -0.09110222497045363 
-0.09110222497045363 -0.09110222497045363 0.6916206742853054 0.6916206742853054 0.6916206742853054 0.6893226318149753 0.6893226318149753 0.6893226318149753 0.5503675705103775 
0.5503675705103775 0.5503675705103775 0.5378664628472096 0.5378664628472096 0.5378664628472096 0.191027421840684 0.191027421840684 0.191027421840684 0.1695599179026602 
0.1695599179026602 0.1695599179026602 -0.3731515599085171 -0.3731515599085171 -0.3731515599085171 -0.3459157953354009 -0.3459157953354009 -0.3459157953354009 0.08983021475885701 
0.08983021475885701 0.08983021475885701 0.09012736050271394 0.09012736050271394 0.09012736050271394 -0.6511498917666791 -0.6511498917666791 -0.6511498917666791 -0.6580894092102872 
-0.6580894092102872 -0.6580894092102872 -0.6580747336521697 -0.6580747336521697 -0.6580747336521697 -0.6303146455322099 -0.6303146455322099 -0.6303146455322099 0.1031841086230579 
0.1031841086230579 0.1031841086230579 0.08937342287538926 0.08937342287538926 0.08937342287538926 0.08216394379307312 0.08216394379307312 0.08216394379307312 -0.4173843222690295 
-0.4173843222690295 -0.4173843222690295 -0.4292977177948699 -0.4292977177948699 -0.4292977177948699 -0.4402295543431981 -0.4402295543431981 -0.4402295543431981 -0.4495009194183982 
-0.4495009194183982 -0.4495009194183982 -0.2523408238748867 -0.2523408238748867 -0.2523408238748867 -0.2363943940332009 -0.2363943940332009 -0.2363943940332009 -0.2310761792484158 
-0.2310761792484158 -0.2310761792484158 -0.8205911625837543 -0.8205911625837543 -0.8205911625837543 -0.8251201919097688 -0.8251201919097688 -0.8251201919097688 -0.8333740142175872 
-0.8333740142175872 -0.8333740142175872 -0.832460881782445 -0.832460881782445 -0.832460881782445 -0.8218143386759196 -0.8218143386759196 -0.8218143386759196 -0.8166212621179386 
-0.8166212621179386 -0.8166212621179386 0.0668913955781554 0.0668913955781554 0.0668913955781554 0.06348882348940435 0.06348882348940435 0.06348882348940435 0.06006584848846051 
0.06006584848846051 0.06006584848846051 0.7949396068908352 0.7949396068908352 0.7949396068908352 0.8016251159850423 0.8016251159850423 0.8016251159850423 0.8101752446727495 
0.8101752446727495 0.8101752446727495 -0.6012351162764838 -0.6012351162764838 -0.6012351162764838 -0.5979397824435508 -0.5979397824435508 -0.5979397824435508 -0.6074138522307859 
-0.6074138522307859 -0.6074138522307859 0.2741816717454791 0.2741816717454791 0.2741816717454791 0.3012734102471361 0.3012734102471361 0.3012734102471361 0.2967421051975733 
0.2967421051975733 0.2967421051975733 0.5285703311999159 0.5285703311999159 0.5285703311999159 0.5247952641338295 0.5247952641338295 0.5247952641338295 0.5092319952744494 
0.5092319952744494 0.5092319952744494 0.3692871883427133 0.3692871883427133 0.3692871883427133 0.3553412710273223 0.3553412710273223 0.3553412710273223 0.3514424869160187 
0.3514424869160187 0.3514424869160187 0.09086558626647823 0.09086558626647823 0.09086558626647823 0.1010935634853253 0.1010935634853253 0.1010935634853253 -0.1356339963137283 
-0.1356339963137283 -0.1356339963137283 -0.1545624121551085 -0.1545624121551085 -0.1545624121551085 -0.1492639899521223 -0.1492639899521223 -0.1492639899521223 0.332853109031213 
0.332853109031213 0.332853109031213 0.3255443251533123 0.3255443251533123 0.3255443251533123 0.3243957532240057 0.3243957532240057 0.3243957532240057 0.2567281697748103 
0.2567281697748103 0.2567281697748103 0.2466666992313816 0.2466666992313816 0.2466666992313816 0.2410899033874087 0.2410899033874087 0.2410899033874087 -0.6450322934025892 
-0.6450322934025892 -0.6450322934025892 -0.6341677062849476 -0.6341677062849476 -0.6341677062849476 -0.6319275466678673 -0.6319275466678673 -0.6319275466678673 -0.0991515466253793 
-0.0991515466253793 -0.0991515466253793 -0.09804390155698753 -0.09804390155698753 -0.09804390155698753 -0.09641084506894482 -0.09641084506894482 -0.09641084506894482 -0.5809530555856911 
-0.5809530555856911 -0.5809530555856911 -0.5710737103303517 -0.5710737103303517 -0.5710737103303517 -0.5635275319432708 -0.5635275319432708 -0.5635275319432708 -0.6505749915821765 
-0.6505749915821765 -0.6505749915821765 -0.6646480082820109 -0.6646480082820109 -0.6646480082820109 -0.1036151790445069 -0.1036151790445069 -0.1036151790445069 -0.09683379505800335 
-0.09683379505800335 -0.09683379505800335 -0.3769159603268165 -0.3769159603268165 -0.3769159603268165 -0.3647141643250656 -0.3647141643250656 -0.3647141643250656 -0.4214532396174047 
-0.4214532396174047 -0.4214532396174047 -0.42604321173703 -0.42604321173703 -0.42604321173703 -0.2092958083519643 -0.2092958083519643 -0.2092958083519643 -0.1935857702504155 
-0.1935857702504155 -0.1935857702504155 -0.4281791510628681 -0.4281791510628681 -0.4281791510628681 -0.4366263963430277 -0.4366263963430277 -0.4366263963430277 -0.8500656200839922 
-0.8500656200839922 -0.8500656200839922 -0.8417427165254537 -0.8417427165254537 -0.8417427165254537 0.240776188883286 0.240776188883286 0.240776188883286 0.2482536014229936 
0.2482536014229936 0.2482536014229936 0.5629079451620813 0.5629079451620813 0.5629079451620813 0.5525647651161263 0.5525647651161263 0.5525647651161263 0.12470299327454 
0.12470299327454 0.12470299327454 0.1305374375771655 0.1305374375771655 0.1305374375771655 0.5204982571663244 0.5204982571663244 0.5204982571663244 0.5166986323665667 
0.5166986323665667 0.5166986323665667 0.6460781686259101 0.6460781686259101 0.6460781686259101 0.6366209250440515 0.6366209250440515 0.6366209250440515 -0.1279390803782671 
-0.1279390803782671 -0.1279390803782671 -0.1332537836135529 -0.1332537836135529 -0.1332537836135529 -0.8260564986001651 -0.8260564986001651 -0.8260564986001651 -0.8193080252781703 
-0.8193080252781703 -0.8193080252781703 -0.7468703415341686 -0.7468703415341686 -0.7468703415341686 -0.7383850571637014 -0.7383850571637014 -0.7383850571637014 -0.5441497150117102 
-0.5441497150117102 -0.5441497150117102 -0.5314772921116838 -0.5314772921116838 -0.5314772921116838 0.7511141933094065 0.7511141933094065 0.7511141933094065 0.766212697185222 
0.766212697185222 0.766212697185222 0.01945395881152946 0.01945395881152946 0.01945395881152946 0.02551551074483813 0.02551551074483813 0.02551551074483813 -0.7271091539396199 
-0.7271091539396199 -0.7271091539396199 -0.7144767088847455 -0.7144767088847455 -0.7144767088847455 0.6584887322852754 0.6584887322852754 0.6584887322852754 0.6672707262916375 
0.6672707262916375 0.6672707262916375 0.8550433057436344 0.8550433057436344 0.8550433057436344 0.8585340669440025 0.8585340669440025 0.8585340669440025 0.5573850095397069 
0.5573850095397069 0.5573850095397069 0.5645087718092437 0.5645087718092437 0.5645087718092437 -0.4814084797030239 -0.4814084797030239 -0.4814084797030239 -0.4710507741522445 
-0.4710507741522445 -0.4710507741522445 0.6728929046860112 0.6728929046860112 0.6728929046860112 0.6622618586752882 0.6622618586752882 0.6622618586752882 0.4855124750215226 
0.4855124750215226 0.4855124750215226 0.508291078167195 0.508291078167195 0.508291078167195 0.3386480272946008 0.3386480272946008 0.3386480272946008 0.3443857248236631 
0.3443857248236631 0.3443857248236631 -0.0315905163829166 -0.0315905163829166 -0.0315905163829166 -0.01881783923681593 -0.01881783923681593 -0.01881783923681593 -0.1634474527714085 
-0.1634474527714085 -0.1634474527714085 -0.1580699944314305 -0.1580699944314305 -0.1580699944314305 0.1595278756250205 0.1595278756250205 0.1595278756250205 0.1656619538147514 
0.1656619538147514 0.1656619538147514 -0.3906462424650289 -0.3906462424650289 -0.3906462424650289 -0.3863110824320816 -0.3863110824320816 -0.3863110824320816 0.556127336005364 
0.556127336005364 0.556127336005364 0.530622829041453 0.530622829041453 0.530622829041453 0.8053538743187687 0.8053538743187687 0.8053538743187687 0.8115483020653209 
0.8115483020653209 0.8115483020653209 -0.1526239815845015 -0.1526239815845015 -0.1526239815845015 -0.1606720003639502 -0.1606720003639502 -0.1606720003639502 0.03564036708068223 
0.03564036708068223 0.03564036708068223 0.02138706127099132 0.02138706127099132 0.02138706127099132 0.05638157312898706 0.05638157312898706 0.05638157312898706 0.05158201281228568 
0.05158201281228568 0.05158201281228568 0.2088394577515157 0.2088394577515157 0.2088394577515157 0.2229994528326296 0.2229994528326296 0.2229994528326296 -0.1682419443616616 
-0.1682419443616616 -0.1682419443616616 -0.1777543608207492 -0.1777543608207492 -0.1777543608207492 0.7869217905660615 0.7869217905660615 0.7869217905660615 0.7923564726992265 
0.7923564726992265 0.7923564726992265 0.2135154371529589 0.2135154371529589 0.2135154371529589 0.2102708248589069 0.2102708248589069 0.2102708248589069 0.04772508375113223 
0.04772508375113223 0.04772508375113223 0.08117061213026065 0.08117061213026065 0.08117061213026065 0.1847271204663991 0.1847271204663991 0.1847271204663991 0.195213060064701 
0.195213060064701 0.195213060064701 -0.6812375883370844 -0.6812375883370844 -0.6812375883370844 -0.6721807843368055 -0.6721807843368055 -0.6721807843368055 -0.7082835369884629 
-0.7082835369884629 -0.7082835369884629 -0.7154685912429667 -0.7154685912429667 -0.7154685912429667 -0.1314130131293935 -0.1314130131293935 -0.1314130131293935 -0.1368806219124618 
-0.1368806219124618 -0.1368806219124618 0.7532958950697115 0.7532958950697115 0.7532958950697115 0.7408764691016662 0.7408764691016662 0.7408764691016662 0.5465091194728305 
0.5465091194728305 0.5465091194728305 0.5361733864601955 0.5361733864601955 0.5361733864601955 -0.2346988539686741 -0.2346988539686741 -0.2346988539686741 -0.2328354797312528 
-0.2328354797312528 -0.2328354797312528 0.7366056704053001 0.7366056704053001 0.7366056704053001 0.7227007182778296 0.7227007182778296 0.7227007182778296 0.52936582574564 
0.52936582574564 0.52936582574564 0.5337572704299786 0.5337572704299786 0.5337572704299786 0.01864761299121452 0.01864761299121452 0.01864761299121452 0.02984347031945061 
0.02984347031945061 0.02984347031945061 0.3848697265107521 0.3848697265107521 0.3848697265107521 0.3909887110015745 0.3909887110015745 0.3909887110015745 -0.2030808738981296 
-0.2030808738981296 -0.2030808738981296 -0.1948187239103295 -0.1948187239103295 -0.1948187239103295 -0.5007174304628813 -0.5007174304628813 -0.5007174304628813 -0.4779022822862874 
-0.4779022822862874 -0.4779022822862874 0.1732725675776654 0.1732725675776654 0.1732725675776654 0.1733781826740977 0.1733781826740977 0.1733781826740977 -0.0244045831361658 
-0.0244045831361658 -0.0244045831361658 -0.01326337417527284 -0.01326337417527284 -0.01326337417527284 0.5754400866657384 0.5754400866657384 0.5754400866657384 0.5656568382475429 
0.5656568382475429 0.5656568382475429 0.135430907354746 0.135430907354746 0.135430907354746 0.1435084335191633 0.1435084335191633 0.1435084335191633 0.5736024395019268 
0.5736024395019268 0.5736024395019268 0.5632446651614444 0.5632446651614444 0.5632446651614444 0.4252755115198192 0.4252755115198192 0.4252755115198192 0.418742569696511 
0.418742569696511 0.418742569696511 0.02101601811156629 0.02101601811156629 0.02101601811156629 0.004144448984984674 0.004144448984984674 0.004144448984984674 -0.3805065265015315 
-0.3805065265015315 -0.3805065265015315 -0.3849507153405239 -0.3849507153405239 -0.3849507153405239 -0.8847631704370962 -0.8847631704370962 -0.8847631704370962 -0.8879474845345451 
-0.8879474845345451 -0.8879474845345451 0.4182429659246548 0.4182429659246548 0.4182429659246548 0.4314255357744738 0.4314255357744738 0.4314255357744738 0.7192391140020488 
0.7192391140020488 0.7192391140020488 0.7142954661021375 0.7142954661021375 0.7142954661021375 0.4927358695192025 0.4927358695192025 0.4927358695192025 0.4872759272445628 
0.4872759272445628 0.4872759272445628 -0.5022314397267731 -0.5022314397267731 -0.5022314397267731 -0.5207051921444056 -0.5207051921444056 -0.5207051921444056 -0.4458051048669796 
-0.4458051048669796 -0.4458051048669796 -0.4332729521886424 -0.4332729521886424 -0.4332729521886424 0.8025090135361481 0.8025090135361481 0.8025090135361481 0.7979451835464302 
0.7979451835464302 0.7979451835464302 0.1158732045056011 0.1158732045056011 0.1158732045056011 0.1195026942113663 0.1195026942113663 0.1195026942113663 0.05182534882972618 
0.05182534882972618 0.05182534882972618 0.05801975844063895 0.05801975844063895 0.05801975844063895 -0.6335283763623615 -0.6335283763623615 -0.6335283763623615 -0.6280655421304829 
-0.6280655421304829 -0.6280655421304829 0.5260103770465163 0.5260103770465163 0.5260103770465163 0.535335365755667 0.535335365755667 0.535335365755667 0.1610729944694718 
0.1610729944694718 0.1610729944694718 0.1398022420868643 0.1398022420868643 0.1398022420868643 0.1135668586671121 0.1135668586671121 0.1135668586671121 0.1177241737019525 
0.1177241737019525 0.1177241737019525 0.293538226692391 0.293538226692391 0.293538226692391 0.3040782098544765 0.3040782098544765 0.3040782098544765 -0.198506834573193 
-0.198506834573193 -0.198506834573193 -0.2042937866923539 -0.2042937866923539 -0.2042937866923539 -0.4778948710425833 -0.4778948710425833 -0.4778948710425833 -0.4556724901087764 
-0.4556724901087764 -0.4556724901087764 0.6450243453436322 0.6450243453436322 0.6450243453436322 0.6559583876170947 0.6559583876170947 0.6559583876170947 -0.5604562505419525 
-0.5604562505419525 -0.5604562505419525 -0.5843937559986842 -0.5843937559986842 -0.5843937559986842 -0.8599758456021618 -0.8599758456021618 -0.8599758456021618 -0.8573042043503133 
-0.8573042043503133 -0.8573042043503133 0.3493924591056826 0.3493924591056826 0.3493924591056826 0.374140777452335 0.374140777452335 0.374140777452335 -0.1583879388780845 
-0.1583879388780845 -0.1583879388780845 -0.1521864304843808 -0.1521864304843808 -0.1521864304843808 0.3848792331813922 0.3848792331813922 0.3848792331813922 0.3952189684117364 
0.3952189684117364 0.3952189684117364 0.6867663994845128 0.6867663994845128 0.6867663994845128 0.7019051165203414 0.7019051165203414 0.7019051165203414 0.8037112956673014 
0.8037112956673014 0.8037112956673014 0.8009811501888613 0.8009811501888613 0.8009811501888613 -0.5494943742753851 -0.5494943742753851 -0.5494943742753851 -0.5371063091181889 
-0.5371063091181889 -0.5371063091181889 -0.03156730925625342 -0.03156730925625342 -0.03156730925625342 -0.02686302620193752 -0.02686302620193752 -0.02686302620193752 -0.1308249001848337 
-0.1308249001848337 -0.1308249001848337 -0.1435255044058977 -0.1435255044058977 -0.1435255044058977 0.02835701130603538 0.02835701130603538 0.02835701130603538 0.02985794026604247 
0.02985794026604247 0.02985794026604247 0.3275605092718759 0.3275605092718759 0.3275605092718759 0.3426850478124993 0.3426850478124993 0.3426850478124993 0.1158991757048983 
0.1158991757048983 0.1158991757048983 0.1213136848947435 0.1213136848947435 0.1213136848947435 -0.2995669142805626 -0.2995669142805626 -0.2995669142805626 -0.2624683712200163 
-0.2624683712200163 -0.2624683712200163 -0.3057807021109289 -0.3057807021109289 -0.3057807021109289 -0.2983585185915469 -0.2983585185915469 -0.2983585185915469 0.3237972944104333 
0.3237972944104333 0.3237972944104333 0.3341505125154238 0.3341505125154238 0.3341505125154238 -0.3433975722994489 -0.3433975722994489 -0.3433975722994489 -0.3344117779303478 
-0.3344117779303478 -0.3344117779303478 0.09075122566821547 0.09075122566821547 0.09075122566821547 0.07466491847140125 0.07466491847140125 0.07466491847140125 0.3641542270376683 
0.3641542270376683 0.3641542270376683 0.3707586779381414 0.3707586779381414 0.3707586779381414 -0.6586009354570664 -0.6586009354570664 -0.6586009354570664 -0.6680531593033945 
-0.6680531593033945 -0.6680531593033945 0.08087243735420957 0.08087243735420957 0.08087243735420957 0.09081408931389004 0.09081408931389004 0.09081408931389004 -0.3816027641670544 