Title = Triangle150
FileType = Solution
Variables = q
Zone T = Triangle150
ZoneType = FETriangle
Nodes = 212082
Elements = 70694
DataPacking = Block
StrandID = 12
SolutionTime = 1.1
-0.514806604633492 -0.514806604633492 -0.514806604633492 -0.4982760594516251 -0.4982760594516251 -0.4982760594516251 -0.4990286159909097 -0.4990286159909097 -0.4990286159909097 0.6136660566594618 
0.6136660566594618 0.6136660566594618 0.604328835767453 0.604328835767453 0.604328835767453 0.5969290265335704 0.5969290265335704 0.5969290265335704 -0.3815540928322393 
-0.3815540928322393 -0.3815540928322393 -0.3547401523009733 -0.3547401523009733 -0.3547401523009733 -0.3362127714469588 -0.3362127714469588 -0.3362127714469588 -0.9057294877961116 
-0.9057294877961116 -0.9057294877961116 -0.9040878929862188 -0.9040878929862188 -0.9040878929862188 -0.9005064849017561 -0.9005064849017561 -0.9005064849017561 -0.02376635121477835 
-0.02376635121477835 -0.02376635121477835 -0.01590865525889452 -0.01590865525889452 -0.01590865525889452 -0.01439140651226012 -0.01439140651226012 -0.01439140651226012 0.7750591748893416 
0.7750591748893416 0.7750591748893416 0.7685123428342858 0.7685123428342858 0.7685123428342858 0.7609117645560334 0.7609117645560334 0.7609117645560334 0.2704042485162422 
0.2704042485162422 0.2704042485162422 0.2581650864374931 0.2581650864374931 0.2581650864374931 -0.2556623999700531 -0.2556623999700531 -0.2556623999700531 -0.2657447454601524 
-0.2657447454601524 -0.2657447454601524 -0.06428206890590145 -0.06428206890590145 -0.06428206890590145 -0.06254200852021199 -0.06254200852021199 -0.06254200852021199 -0.2107177616791587 
-0.2107177616791587 -0.2107177616791587 -0.2014226452257146 -0.2014226452257146 -0.2014226452257146 0.0510073105416514 0.0510073105416514 0.0510073105416514 0.05386665160066693 
0.05386665160066693 0.05386665160066693 -0.1491757230445961 -0.1491757230445961 -0.1491757230445961 -0.1374049646411617 -0.1374049646411617 -0.1374049646411617 -0.1496664031112808 
-0.1496664031112808 -0.1496664031112808 -0.1560222116072816 -0.1560222116072816 -0.1560222116072816 -0.2657285768351239 -0.2657285768351239 -0.2657285768351239 -0.2698189449709596 
-0.2698189449709596 -0.2698189449709596 0.3290134479702479 0.3290134479702479 0.3290134479702479 0.3329247661489921 0.3329247661489921 0.3329247661489921 0.333994372034882 
0.333994372034882 0.333994372034882 0.3340095577111062 0.3340095577111062 0.3340095577111062 -0.05973973970715472 -0.05973973970715472 -0.05973973970715472 -0.06371081367137958 
-0.06371081367137958 -0.06371081367137958 -0.006679597136681755 -0.006679597136681755 -0.006679597136681755 -0.01548359947167238 -0.01548359947167238 -0.01548359947167238 -0.4527191545047412 
-0.4527191545047412 -0.4527191545047412 -0.4578944666782004 -0.4578944666782004 -0.4578944666782004 -0.8712052100079021 -0.8712052100079021 -0.8712052100079021 -0.8790005201320753 
-0.8790005201320753 -0.8790005201320753 0.2121566727073416 0.2121566727073416 0.2121566727073416 0.2040996950367872 0.2040996950367872 0.2040996950367872 -0.1371023962475107 
-0.1371023962475107 -0.1371023962475107 -0.132025182423865 -0.132025182423865 -0.132025182423865 0.4403506521280501 0.4403506521280501 0.4403506521280501 0.4286800792867123 
0.4286800792867123 0.4286800792867123 -0.03509970110008939 -0.03509970110008939 -0.03509970110008939 -0.03611147309699436 -0.03611147309699436 -0.03611147309699436 -0.07678646807284184 
-0.07678646807284184 -0.07678646807284184 -0.07011719811220903 -0.07011719811220903 -0.07011719811220903 0.3676602227642505 0.3676602227642505 0.3676602227642505 0.3813401627367908 
0.3813401627367908 0.3813401627367908 0.132894171997385 0.132894171997385 0.132894171997385 0.1201052574846569 0.1201052574846569 0.1201052574846569 0.0264584603922754 
0.0264584603922754 0.0264584603922754 0.02808553512175649 0.02808553512175649 0.02808553512175649 -0.2523181243159594 -0.2523181243159594 -0.2523181243159594 -0.2560536845874878 
-0.2560536845874878 -0.2560536845874878 0.02422005465289059 0.02422005465289059 0.02422005465289059 0.02608489858960587 0.02608489858960587 0.02608489858960587 0.1061945912959383 
0.1061945912959383 0.1061945912959383 0.09355115654867736 0.09355115654867736 0.09355115654867736 -0.7738027342757459 -0.7738027342757459 -0.7738027342757459 -0.7762092934803576 
-0.7762092934803576 -0.7762092934803576 -0.08676570219442033 -0.08676570219442033 -0.08676570219442033 -0.08971094373162214 -0.08971094373162214 -0.08971094373162214 0.02612317111785395 
0.02612317111785395 0.02612317111785395 0.02771826436438796 0.02771826436438796 0.02771826436438796 0.3992055374389801 0.3992055374389801 0.3992055374389801 0.4011124384661109 
0.4011124384661109 0.4011124384661109 0.3106488837474984 0.3106488837474984 0.3106488837474984 0.3220654096961957 0.3220654096961957 0.3220654096961957 0.2542609207513978 
0.2542609207513978 0.2542609207513978 0.2662303184395017 0.2662303184395017 0.2662303184395017 -0.01909010845293716 -0.01909010845293716 -0.01909010845293716 -0.01595305177451437 
-0.01595305177451437 -0.01595305177451437 -0.04512032619415339 -0.04512032619415339 -0.04512032619415339 -0.02810453600511665 -0.02810453600511665 -0.02810453600511665 0.05204207570608885 
0.05204207570608885 0.05204207570608885 0.0624379250431354 0.0624379250431354 0.0624379250431354 0.0449100502353524 0.0449100502353524 0.0449100502353524 0.04089224191292509 
0.04089224191292509 0.04089224191292509 -0.5249808975337082 -0.5249808975337082 -0.5249808975337082 -0.5343296990589463 -0.5343296990589463 -0.5343296990589463 -0.2543755878502183 
-0.2543755878502183 -0.2543755878502183 -0.2650797249037398 -0.2650797249037398 -0.2650797249037398 -0.4838988579702997 -0.4838988579702997 -0.4838988579702997 -0.02729185578548656 
-0.02729185578548656 -0.02729185578548656 -0.03254723875009667 -0.03254723875009667 -0.03254723875009667 0.4180010741839948 0.4180010741839948 0.4180010741839948 0.4067369192703554 
0.4067369192703554 0.4067369192703554 0.06747819185639209 0.06747819185639209 0.06747819185639209 0.07187389724318322 0.07187389724318322 0.07187389724318322 0.3127494717007718 
0.3127494717007718 0.3127494717007718 0.318673625763681 0.318673625763681 0.318673625763681 0.5622327851602547 0.5622327851602547 0.5622327851602547 0.5551423531571528 
0.5551423531571528 0.5551423531571528 0.3721342211464117 0.3721342211464117 0.3721342211464117 0.1907626892115614 0.1907626892115614 0.1907626892115614 -0.5284181859969713 
-0.5284181859969713 -0.5284181859969713 0.381992103814156 0.381992103814156 0.381992103814156 0.004271118208648424 0.004271118208648424 0.004271118208648424 0.209766508499771 
0.209766508499771 0.209766508499771 0.2064085218175055 0.2064085218175055 0.2064085218175055 0.2626831926022598 0.2626831926022598 0.2626831926022598 -0.162075172709845 
-0.162075172709845 -0.162075172709845 -0.0680318208691426 -0.0680318208691426 -0.0680318208691426 -0.03897654748423397 -0.03897654748423397 -0.03897654748423397 0.8796642032707089 
0.8796642032707089 0.8796642032707089 0.8886357886449635 0.8886357886449635 0.8886357886449635 -0.7700137538379781 -0.7700137538379781 -0.7700137538379781 -0.7773834644888571 
-0.7773834644888571 -0.7773834644888571 -0.2861644507103446 -0.2861644507103446 -0.2861644507103446 -0.3026439837014521 -0.3026439837014521 -0.3026439837014521 -0.4882477510083577 
-0.4882477510083577 -0.4882477510083577 -0.4588324062946517 -0.4588324062946517 -0.4588324062946517 0.6741931698494918 0.6741931698494918 0.6741931698494918 0.6476691235133512 
0.6476691235133512 0.6476691235133512 -0.2517308594310663 -0.2517308594310663 -0.2517308594310663 -0.2673561235733524 -0.2673561235733524 -0.2673561235733524 -0.7835560718007377 
-0.7835560718007377 -0.7835560718007377 -0.7696872574623979 -0.7696872574623979 -0.7696872574623979 0.6684097109762598 0.6684097109762598 0.6684097109762598 0.6786676794735413 
0.6786676794735413 0.6786676794735413 0.883567535994811 0.883567535994811 0.883567535994811 0.8917219940721953 0.8917219940721953 0.8917219940721953 0.08601153433377234 
0.08601153433377234 0.08601153433377234 0.0554291468827577 0.0554291468827577 0.0554291468827577 0.4210809444468169 0.4210809444468169 0.4210809444468169 0.3962258708707068 
0.3962258708707068 0.3962258708707068 0.0751210857575161 0.0751210857575161 0.0751210857575161 0.1023966513493152 0.1023966513493152 0.1023966513493152 0.7875852635976288 
0.7875852635976288 0.7875852635976288 0.8031933775144205 0.8031933775144205 0.8031933775144205 -0.4912544843112473 -0.4912544843112473 -0.4912544843112473 -0.5223123917158239 
-0.5223123917158239 -0.5223123917158239 -0.02412840285254405 -0.02412840285254405 -0.02412840285254405 -0.01398097853107169 -0.01398097853107169 -0.01398097853107169 0.3177172642163116 
0.3177172642163116 0.3177172642163116 0.3006158027035817 0.3006158027035817 0.3006158027035817 -0.4067019600490905 -0.4067019600490905 -0.4067019600490905 -0.4025785212866151 
-0.4025785212866151 -0.4025785212866151 -0.4993761517544806 -0.4993761517544806 -0.4993761517544806 -0.480686911853327 -0.480686911853327 -0.480686911853327 0.1976900870739692 
0.1976900870739692 0.1976900870739692 0.1683122938282936 0.1683122938282936 0.1683122938282936 0.6809949282383125 0.6809949282383125 0.6809949282383125 0.6900218929825601 
0.6900218929825601 0.6900218929825601 -0.4088729265101396 -0.4088729265101396 -0.4088729265101396 -0.4378875525906576 -0.4378875525906576 -0.4378875525906576 0.897763131341379 
0.897763131341379 0.897763131341379 0.8951673860283518 0.8951673860283518 0.8951673860283518 0.5967935089774439 0.5967935089774439 0.5967935089774439 0.6007477680106638 
0.6007477680106638 0.6007477680106638 -0.8017800505317347 -0.8017800505317347 -0.8017800505317347 -0.8120185200010028 -0.8120185200010028 -0.8120185200010028 -0.07151038822596774 
-0.07151038822596774 -0.07151038822596774 -0.05650291802369393 -0.05650291802369393 -0.05650291802369393 0.04446935651978695 0.04446935651978695 0.04446935651978695 0.04762592513285566 
0.04762592513285566 0.04762592513285566 -0.6500077215781656 -0.6500077215781656 -0.6500077215781656 -0.6389633206653305 -0.6389633206653305 -0.6389633206653305 -0.238370931368914 
-0.238370931368914 -0.238370931368914 -0.2661619625473015 -0.2661619625473015 -0.2661619625473015 -0.4700758557258985 -0.4700758557258985 -0.4700758557258985 -0.4423752140270157 
-0.4423752140270157 -0.4423752140270157 -0.8731703529464389 -0.8731703529464389 -0.8731703529464389 -0.8656782324672692 -0.8656782324672692 -0.8656782324672692 -0.1221990373584377 
-0.1221990373584377 -0.1221990373584377 -0.1317734777917721 -0.1317734777917721 -0.1317734777917721 -0.2230847652003239 -0.2230847652003239 -0.2230847652003239 -0.2175043754552421 
-0.2175043754552421 -0.2175043754552421 0.04425030857474849 0.04425030857474849 0.04425030857474849 0.03062151551531395 0.03062151551531395 0.03062151551531395 -0.4949631381774856 
-0.4949631381774856 -0.4949631381774856 -0.4782905857612519 -0.4782905857612519 -0.4782905857612519 0.3828381030978623 0.3828381030978623 0.3828381030978623 0.3937149716890743 
0.3937149716890743 0.3937149716890743 0.7276205313595827 0.7276205313595827 0.7276205313595827 0.7453165879280422 0.7453165879280422 0.7453165879280422 0.3397910396958286 
0.3397910396958286 0.3397910396958286 0.3586655895716384 0.3586655895716384 0.3586655895716384 0.52729088739945 0.52729088739945 0.52729088739945 0.5114930504637543 
0.5114930504637543 0.5114930504637543 0.9124342117066293 0.9124342117066293 0.9124342117066293 0.9107226395724475 0.9107226395724475 0.9107226395724475 0.4539609812082722 
0.4539609812082722 0.4539609812082722 0.4406064561468782 0.4406064561468782 0.4406064561468782 -0.1969636753180706 -0.1969636753180706 -0.1969636753180706 -0.1936201399145336 
-0.1936201399145336 -0.1936201399145336 -0.9100151490983579 -0.9100151490983579 -0.9100151490983579 -0.9069366175160134 -0.9069366175160134 -0.9069366175160134 0.0537031143943548 
0.0537031143943548 0.0537031143943548 0.04625143486169759 0.04625143486169759 0.04625143486169759 0.5989126190737007 0.5989126190737007 0.5989126190737007 0.5795468219203264 
0.5795468219203264 0.5795468219203264 -0.8978333230892561 -0.8978333230892561 -0.8978333230892561 -0.8977120200069982 -0.8977120200069982 -0.8977120200069982 -0.6188027149067523 
-0.6188027149067523 -0.6188027149067523 -0.6033637795549759 -0.6033637795549759 -0.6033637795549759 -0.1201952501459102 -0.1201952501459102 -0.1201952501459102 -0.1494428726650772 
-0.1494428726650772 -0.1494428726650772 0.5676981756063972 0.5676981756063972 0.5676981756063972 0.5634500571949176 0.5634500571949176 0.5634500571949176 -0.04243718828235363 
-0.04243718828235363 -0.04243718828235363 -0.04027743996417853 -0.04027743996417853 -0.04027743996417853 -0.423389677887266 -0.423389677887266 -0.423389677887266 -0.3908265634288359 
-0.3908265634288359 -0.3908265634288359 -0.04031783399401155 -0.04031783399401155 -0.04031783399401155 -0.03575306372781815 -0.03575306372781815 -0.03575306372781815 0.3624471990126915 
0.3624471990126915 0.3624471990126915 0.3659960144093511 0.3659960144093511 0.3659960144093511 -0.8567423351061183 -0.8567423351061183 -0.8567423351061183 -0.8658686581787808 
-0.8658686581787808 -0.8658686581787808 0.3019069574348727 0.3019069574348727 0.3019069574348727 0.3353572489032571 0.3353572489032571 0.3353572489032571 -0.08146442663006934 
-0.08146442663006934 -0.08146442663006934 -0.05392626472012475 -0.05392626472012475 -0.05392626472012475 0.4441462198108116 0.4441462198108116 0.4441462198108116 0.4638295354784256 
0.4638295354784256 0.4638295354784256 -0.04812893851274966 -0.04812893851274966 -0.04812893851274966 -0.03076712372713413 -0.03076712372713413 -0.03076712372713413 -0.803034445446527 
-0.803034445446527 -0.803034445446527 -0.7865013445129214 -0.7865013445129214 -0.7865013445129214 0.08550293715047222 0.08550293715047222 0.08550293715047222 0.07676412080405515 
0.07676412080405515 0.07676412080405515 0.6279526162097742 0.6279526162097742 0.6279526162097742 0.6203936204019991 0.6203936204019991 0.6203936204019991 0.3665882563869117 
0.3665882563869117 0.3665882563869117 0.3389939222010823 0.3389939222010823 0.3389939222010823 0.07699540892588494 0.07699540892588494 0.07699540892588494 0.121415856078087 
0.121415856078087 0.121415856078087 0.7404653100797002 0.7404653100797002 0.7404653100797002 0.7558138099385904 0.7558138099385904 0.7558138099385904 0.7945620789690586 
0.7945620789690586 0.7945620789690586 0.7843331667221025 0.7843331667221025 0.7843331667221025 -0.0267789778588753 -0.0267789778588753 -0.0267789778588753 -0.03000991247489314 
-0.03000991247489314 -0.03000991247489314 0.1681606691998223 0.1681606691998223 0.1681606691998223 0.1964543422694204 0.1964543422694204 0.1964543422694204 0.0520463915642624 
0.0520463915642624 0.0520463915642624 0.05404810531791378 0.05404810531791378 0.05404810531791378 -0.9042576192617779 -0.9042576192617779 -0.9042576192617779 -0.9048679664053125 
-0.9048679664053125 -0.9048679664053125 -0.9024484124950846 -0.9024484124950846 -0.9024484124950846 -0.8993367725166717 -0.8993367725166717 -0.8993367725166717 0.5775280697330294 
0.5775280697330294 0.5775280697330294 0.5692264264929838 0.5692264264929838 0.5692264264929838 0.5572982111051167 0.5572982111051167 0.5572982111051167 -0.8079124762642473 
-0.8079124762642473 -0.8079124762642473 -0.8200242276960684 -0.8200242276960684 -0.8200242276960684 -0.825942061306759 -0.825942061306759 -0.825942061306759 -0.8330481536912975 
-0.8330481536912975 -0.8330481536912975 0.0004926895455299087 0.0004926895455299087 0.0004926895455299087 0.01707954037656111 0.01707954037656111 0.01707954037656111 0.02092248038847019 
0.02092248038847019 0.02092248038847019 -0.7690966020874686 -0.7690966020874686 -0.7690966020874686 -0.7621583486398178 -0.7621583486398178 -0.7621583486398178 -0.7690369530933285 
-0.7690369530933285 -0.7690369530933285 -0.8213936936470059 -0.8213936936470059 -0.8213936936470059 -0.8170796681151767 -0.8170796681151767 -0.8170796681151767 -0.8218235396231848 
-0.8218235396231848 -0.8218235396231848 0.06081316916007998 0.06081316916007998 0.06081316916007998 0.06403736065276967 0.06403736065276967 0.06403736065276967 0.06763040839807841 
0.06763040839807841 0.06763040839807841 0.8338370465151944 0.8338370465151944 0.8338370465151944 0.8298252378414742 0.8298252378414742 0.8298252378414742 0.8365272709671548 
0.8365272709671548 0.8365272709671548 -0.1584507905567384 -0.1584507905567384 -0.1584507905567384 -0.1589534459376432 -0.1589534459376432 -0.1589534459376432 -0.1697270050465713 
-0.1697270050465713 -0.1697270050465713 0.008360262279835586 0.008360262279835586 0.008360262279835586 0.03129575508675809 0.03129575508675809 0.03129575508675809 0.02732280810975878 
0.02732280810975878 0.02732280810975878 0.6709245754625639 0.6709245754625639 0.6709245754625639 0.6611909794828066 0.6611909794828066 0.6611909794828066 0.6479073239110448 
0.6479073239110448 0.6479073239110448 0.4045068170741338 0.4045068170741338 0.4045068170741338 0.3964023758759823 0.3964023758759823 0.3964023758759823 0.3802059590606666 
0.3802059590606666 0.3802059590606666 0.5600731128322667 0.5600731128322667 0.5600731128322667 0.5659402772051947 0.5659402772051947 0.5659402772051947 0.118916301143556 
0.118916301143556 0.118916301143556 0.09993331473462841 0.09993331473462841 0.09993331473462841 0.1059540909739834 0.1059540909739834 0.1059540909739834 0.06126611577504253 
0.06126611577504253 0.06126611577504253 0.05826727059195182 0.05826727059195182 0.05826727059195182 0.05678748195063172 0.05678748195063172 0.05678748195063172 -0.02581665113856587 
-0.02581665113856587 -0.02581665113856587 -0.03459969507401836 -0.03459969507401836 -0.03459969507401836 -0.02897783720284045 -0.02897783720284045 -0.02897783720284045 -0.1563292896527074 
-0.1563292896527074 -0.1563292896527074 -0.144165150905843 -0.144165150905843 -0.144165150905843 -0.1375323544385686 -0.1375323544385686 -0.1375323544385686 0.0237979674928673 
0.0237979674928673 0.0237979674928673 0.01840298175663936 0.01840298175663936 0.01840298175663936 0.0115985556444651 0.0115985556444651 0.0115985556444651 -0.3586732442381342 
-0.3586732442381342 -0.3586732442381342 -0.3475339871659985 -0.3475339871659985 -0.3475339871659985 -0.3412402497160819 -0.3412402497160819 -0.3412402497160819 -0.5318692674543817 
-0.5318692674543817 -0.5318692674543817 -0.5411567531726713 -0.5411567531726713 -0.5411567531726713 -0.1617253255705233 -0.1617253255705233 -0.1617253255705233 -0.1645736003069002 
-0.1645736003069002 -0.1645736003069002 0.1679263061418159 0.1679263061418159 0.1679263061418159 0.1815801938708025 0.1815801938708025 0.1815801938708025 -0.434993475620819 
-0.434993475620819 -0.434993475620819 -0.4314332054976867 -0.4314332054976867 -0.4314332054976867 0.04800444335655983 0.04800444335655983 0.04800444335655983 0.06328302576807626 
0.06328302576807626 0.06328302576807626 -0.0332512880261521 -0.0332512880261521 -0.0332512880261521 -0.04713051357593182 -0.04713051357593182 -0.04713051357593182 -0.7896879379585192 
-0.7896879379585192 -0.7896879379585192 -0.8017020089291123 -0.8017020089291123 -0.8017020089291123 0.007424495750916808 0.007424495750916808 0.007424495750916808 0.01046517984030185 
0.01046517984030185 0.01046517984030185 0.03831692194237321 0.03831692194237321 0.03831692194237321 0.02473660501919657 0.02473660501919657 0.02473660501919657 0.338564526436989 
0.338564526436989 0.338564526436989 0.3406426552403766 0.3406426552403766 0.3406426552403766 0.5848136968048452 0.5848136968048452 0.5848136968048452 0.5713427624718646 
0.5713427624718646 0.5713427624718646 0.9040105037213833 0.9040105037213833 0.9040105037213833 0.9042323451837173 0.9042323451837173 0.9042323451837173 -0.4564403606187236 
-0.4564403606187236 -0.4564403606187236 -0.463762076803681 -0.463762076803681 -0.463762076803681 -0.8799367018385944 -0.8799367018385944 -0.8799367018385944 -0.8871904515769705 
-0.8871904515769705 -0.8871904515769705 -0.5762748620186394 -0.5762748620186394 -0.5762748620186394 -0.565172833929021 -0.565172833929021 -0.565172833929021 -0.02782267667760726 
-0.02782267667760726 -0.02782267667760726 -0.0122649881274686 -0.0122649881274686 -0.0122649881274686 0.3328017870700416 0.3328017870700416 0.3328017870700416 0.3537417041908221 
0.3537417041908221 0.3537417041908221 0.0649678110580065 0.0649678110580065 0.0649678110580065 0.08393628232011474 0.08393628232011474 0.08393628232011474 -0.4373625039723237 
-0.4373625039723237 -0.4373625039723237 -0.4254287251641069 -0.4254287251641069 -0.4254287251641069 0.2678049989148741 0.2678049989148741 0.2678049989148741 0.2777509774309634 
0.2777509774309634 0.2777509774309634 0.7266076213355823 0.7266076213355823 0.7266076213355823 0.7444812698765918 0.7444812698765918 0.7444812698765918 0.2893589414782087 
0.2893589414782087 0.2893589414782087 0.3044988149895916 0.3044988149895916 0.3044988149895916 -0.8558458736892345 -0.8558458736892345 -0.8558458736892345 -0.8505852362980427 
-0.8505852362980427 -0.8505852362980427 0.2451193734964349 0.2451193734964349 0.2451193734964349 0.2399547092852447 0.2399547092852447 0.2399547092852447 0.02766387274912561 
0.02766387274912561 0.02766387274912561 0.04725968706153343 0.04725968706153343 0.04725968706153343 0.358253758678253 0.358253758678253 0.358253758678253 0.3534056554022152 
0.3534056554022152 0.3534056554022152 0.3824235844524239 0.3824235844524239 0.3824235844524239 0.3875438923260242 0.3875438923260242 0.3875438923260242 -0.02857158223350578 
-0.02857158223350578 -0.02857158223350578 -0.02916405751435581 -0.02916405751435581 -0.02916405751435581 0.3019667750714543 0.3019667750714543 0.3019667750714543 0.3017531229334741 
0.3017531229334741 0.3017531229334741 -0.4090858196419984 -0.4090858196419984 -0.4090858196419984 -0.4127211696471246 -0.4127211696471246 -0.4127211696471246 0.5436835603944917 
0.5436835603944917 0.5436835603944917 0.5229112063738119 0.5229112063738119 0.5229112063738119 0.395568554815824 0.395568554815824 0.395568554815824 0.4056499993746998 
0.4056499993746998 0.4056499993746998 -0.4857676503829297 -0.4857676503829297 -0.4857676503829297 -0.4967871114450791 -0.4967871114450791 -0.4967871114450791 0.5103996834336663 
0.5103996834336663 0.5103996834336663 0.4905863618883676 0.4905863618883676 0.4905863618883676 0.3288168722053788 0.3288168722053788 0.3288168722053788 0.3207259139460872 
0.3207259139460872 0.3207259139460872 -0.340041003166512 -0.340041003166512 -0.340041003166512 -0.3258349763552759 -0.3258349763552759 -0.3258349763552759 0.09806587114075879 
0.09806587114075879 0.09806587114075879 0.08579186746000157 0.08579186746000157 0.08579186746000157 0.4957669111195518 0.4957669111195518 0.4957669111195518 0.4851307285574907 
0.4851307285574907 0.4851307285574907 0.02564848331892087 0.02564848331892087 0.02564848331892087 0.02307012067230149 0.02307012067230149 0.02307012067230149 0.2590671149706498 
0.2590671149706498 0.2590671149706498 0.285164795738625 0.285164795738625 0.285164795738625 0.02753648295076325 0.02753648295076325 0.02753648295076325 0.02721060695193629 
0.02721060695193629 0.02721060695193629 -0.4267148101253398 -0.4267148101253398 -0.4267148101253398 -0.4113340776636548 -0.4113340776636548 -0.4113340776636548 -0.9113860393296371 
-0.9113860393296371 -0.9113860393296371 -0.9112841778591261 -0.9112841778591261 -0.9112841778591261 0.3349056240178993 0.3349056240178993 0.3349056240178993 0.3218695933419366 
0.3218695933419366 0.3218695933419366 0.7017073638738466 0.7017073638738466 0.7017073638738466 0.6872041112350713 0.6872041112350713 0.6872041112350713 0.07680981598875378 
0.07680981598875378 0.07680981598875378 0.06771575163112629 0.06771575163112629 0.06771575163112629 0.03707049693584667 0.03707049693584667 0.03707049693584667 0.04510551599940008 
0.04510551599940008 0.04510551599940008 0.744339108591428 0.744339108591428 0.744339108591428 0.7254850338485387 0.7254850338485387 0.7254850338485387 0.2436542193274071 
0.2436542193274071 0.2436542193274071 0.2645333346678871 0.2645333346678871 0.2645333346678871 0.4618565065303931 0.4618565065303931 0.4618565065303931 0.4677368550833811 
0.4677368550833811 0.4677368550833811 0.8044873752532006 0.8044873752532006 0.8044873752532006 0.8092757271505766 0.8092757271505766 0.8092757271505766 -0.1331067679720421 
-0.1331067679720421 -0.1331067679720421 -0.1309660017655748 -0.1309660017655748 -0.1309660017655748 -0.8627712196172583 -0.8627712196172583 -0.8627712196172583 -0.8533519827164036 
-0.8533519827164036 -0.8533519827164036 0.09680909331620255 0.09680909331620255 0.09680909331620255 0.1028026657837391 0.1028026657837391 0.1028026657837391 0.2284202849503957 
0.2284202849503957 0.2284202849503957 0.243004792515751 0.243004792515751 0.243004792515751 0.1737029026654693 0.1737029026654693 0.1737029026654693 0.1651661302603649 
0.1651661302603649 0.1651661302603649 0.2771382386533776 0.2771382386533776 0.2771382386533776 0.2792830162722226 0.2792830162722226 0.2792830162722226 0.1660719049811394 
0.1660719049811394 0.1660719049811394 0.1570948951555286 0.1570948951555286 0.1570948951555286 0.1114023366669475 0.1114023366669475 0.1114023366669475 0.1072418130331352 
0.1072418130331352 0.1072418130331352 -0.2088474842335373 -0.2088474842335373 -0.2088474842335373 -0.2247082725740384 -0.2247082725740384 -0.2247082725740384 -0.453521007678643 
-0.453521007678643 -0.453521007678643 -0.4514031586262255 -0.4514031586262255 -0.4514031586262255 -0.8219765613169298 -0.8219765613169298 -0.8219765613169298 -0.8164498905369314 
-0.8164498905369314 -0.8164498905369314 -0.1211297934884642 -0.1211297934884642 -0.1211297934884642 -0.1050105858807412 -0.1050105858807412 -0.1050105858807412 0.6421371842484922 
0.6421371842484922 0.6421371842484922 0.6469932565158982 0.6469932565158982 0.6469932565158982 0.5907979241059772 0.5907979241059772 0.5907979241059772 0.5924416498627365 
0.5924416498627365 0.5924416498627365 -0.119450344313264 -0.119450344313264 -0.119450344313264 -0.1386633850462954 -0.1386633850462954 -0.1386633850462954 -0.2414831799077625 
-0.2414831799077625 -0.2414831799077625 -0.2319326884868601 -0.2319326884868601 -0.2319326884868601 0.8757989447133296 0.8757989447133296 0.8757989447133296 0.8799397647252333 
0.8799397647252333 0.8799397647252333 -0.1209928241886748 -0.1209928241886748 -0.1209928241886748 -0.1141867355679585 -0.1141867355679585 -0.1141867355679585 0.3169226962239744 
0.3169226962239744 0.3169226962239744 0.3309517094919239 0.3309517094919239 0.3309517094919239 -0.2088910110598697 -0.2088910110598697 -0.2088910110598697 -0.1975608831008043 
-0.1975608831008043 -0.1975608831008043 0.8693525950767285 0.8693525950767285 0.8693525950767285 0.8729576809488241 0.8729576809488241 0.8729576809488241 0.316432602968147 
0.316432602968147 0.316432602968147 0.303683265488246 0.303683265488246 0.303683265488246 0.03391479141436582 0.03391479141436582 0.03391479141436582 0.0356410039724414 
0.0356410039724414 0.0356410039724414 0.1396218307275331 0.1396218307275331 0.1396218307275331 0.147997486183945 0.147997486183945 0.147997486183945 0.0433070933813618 
0.0433070933813618 0.0433070933813618 0.04018291811048567 0.04018291811048567 0.04018291811048567 -0.1961597443334899 -0.1961597443334899 -0.1961597443334899 -0.1767449321755287 
-0.1767449321755287 -0.1767449321755287 0.2606542891575594 0.2606542891575594 0.2606542891575594 0.2721614184525039 0.2721614184525039 0.2721614184525039 -0.3846936074337036 
-0.3846936074337036 -0.3846936074337036 -0.4029951307666298 -0.4029951307666298 -0.4029951307666298 -0.7529794344750889 -0.7529794344750889 -0.7529794344750889 -0.7599965574920406 
-0.7599965574920406 -0.7599965574920406 0.3883557798409673 0.3883557798409673 0.3883557798409673 0.4048142331603091 0.4048142331603091 0.4048142331603091 -0.01430734789766113 
-0.01430734789766113 -0.01430734789766113 -0.01351695423731118 -0.01351695423731118 -0.01351695423731118 0.8047721037483649 0.8047721037483649 0.8047721037483649 0.8107529571614946 
0.8107529571614946 0.8107529571614946 0.6868564347498408 0.6868564347498408 0.6868564347498408 0.7107663176431436 0.7107663176431436 0.7107663176431436 0.3864352250286119 
0.3864352250286119 0.3864352250286119 0.3770321886904494 0.3770321886904494 0.3770321886904494 -0.117611862141648 -0.117611862141648 -0.117611862141648 -0.104551105199276 
-0.104551105199276 -0.104551105199276 0.3288582747532262 0.3288582747532262 0.3288582747532262 0.3378395222544757 0.3378395222544757 0.3378395222544757 0.1626551404644448 
0.1626551404644448 0.1626551404644448 0.1506146576667672 0.1506146576667672 0.1506146576667672 0.2377786475764254 0.2377786475764254 0.2377786475764254 0.2445953149939093 
0.2445953149939093 0.2445953149939093 0.5308607136020105 0.5308607136020105 0.5308607136020105 0.5452846303397285 0.5452846303397285 0.5452846303397285 -0.1237818574113646 
-0.1237818574113646 -0.1237818574113646 -0.1175180661735013 -0.1175180661735013 -0.1175180661735013 -0.03291909798088278 -0.03291909798088278 -0.03291909798088278 0.001030093975170492 
0.001030093975170492 0.001030093975170492 -0.4684892325082446 -0.4684892325082446 -0.4684892325082446 -0.4679825052082741 -0.4679825052082741 -0.4679825052082741 -0.1227589555774879 
-0.1227589555774879 -0.1227589555774879 -0.117391175031245 -0.117391175031245 -0.117391175031245 -0.7145014758200762 -0.7145014758200762 -0.7145014758200762 -0.7080446126379397 
-0.7080446126379397 -0.7080446126379397 -0.1574615820570018 -0.1574615820570018 -0.1574615820570018 -0.1728712203463009 -0.1728712203463009 -0.1728712203463009 0.5468029486046556 
0.5468029486046556 0.5468029486046556 0.5474922172173868 0.5474922172173868 0.5474922172173868 -0.2226110962959622 -0.2226110962959622 -0.2226110962959622 -0.2327503396306738 
-0.2327503396306738 -0.2327503396306738 -0.1422693442519066 -0.1422693442519066 -0.1422693442519066 -0.1328173899605747 -0.1328173899605747 -0.1328173899605747 0.06243003341558283 