Title = Triangle150
FileType = Solution
Variables = q
Zone T = Triangle150
ZoneType = FETriangle
Nodes = 212082
Elements = 70694
DataPacking = Block
StrandID = 8
SolutionTime = 0.7000000000000001
0.3922180536444199 0.3922180536444199 0.3922180536444199 0.3842536967722092 0.3842536967722092 0.3842536967722092 0.4032391873061428 0.4032391873061428 0.4032391873061428 -0.1123459835553765 
-0.1123459835553765 -0.1123459835553765 -0.1046445626623637 -0.1046445626623637 -0.1046445626623637 -0.09162238044476612 -0.09162238044476612 -0.09162238044476612 0.8896372980244049 
0.8896372980244049 0.8896372980244049 0.895526288577953 0.895526288577953 0.895526288577953 0.8996906303402735 0.8996906303402735 0.8996906303402735 0.2429946471489446 
0.2429946471489446 0.2429946471489446 0.2396498132441554 0.2396498132441554 0.2396498132441554 0.2514200585648704 0.2514200585648704 0.2514200585648704 0.7029514891637496 
0.7029514891637496 0.7029514891637496 0.6945358551560665 0.6945358551560665 0.6945358551560665 0.687240470650045 0.687240470650045 0.687240470650045 -0.103626335357844 
-0.103626335357844 -0.103626335357844 -0.1111313527174978 -0.1111313527174978 -0.1111313527174978 -0.1049749755867984 -0.1049749755867984 -0.1049749755867984 -0.4734186758285974 
-0.4734186758285974 -0.4734186758285974 -0.4865685655803829 -0.4865685655803829 -0.4865685655803829 -0.3085363673413717 -0.3085363673413717 -0.3085363673413717 -0.3046900856211966 
-0.3046900856211966 -0.3046900856211966 -0.4765611661848991 -0.4765611661848991 -0.4765611661848991 -0.4817407894731577 -0.4817407894731577 -0.4817407894731577 -0.2724255839647379 
-0.2724255839647379 -0.2724255839647379 -0.2843866854737634 -0.2843866854737634 -0.2843866854737634 0.2496451283071589 0.2496451283071589 0.2496451283071589 0.2319621846732459 
0.2319621846732459 0.2319621846732459 -0.09985796156590021 -0.09985796156590021 -0.09985796156590021 -0.07801406727791643 -0.07801406727791643 -0.07801406727791643 0.6846153244312331 
0.6846153244312331 0.6846153244312331 0.6932371212005651 0.6932371212005651 0.6932371212005651 -0.358448649876537 -0.358448649876537 -0.358448649876537 -0.3443194048061642 
-0.3443194048061642 -0.3443194048061642 0.02604348615864954 0.02604348615864954 0.02604348615864954 0.04050710674003433 0.04050710674003433 0.04050710674003433 0.7014890449195117 
0.7014890449195117 0.7014890449195117 0.6995508178366705 0.6995508178366705 0.6995508178366705 -0.3196732121021275 -0.3196732121021275 -0.3196732121021275 -0.3031937298634748 
-0.3031937298634748 -0.3031937298634748 -0.885957534759874 -0.885957534759874 -0.885957534759874 -0.8839419411827343 -0.8839419411827343 -0.8839419411827343 0.4172846594795846 
0.4172846594795846 0.4172846594795846 0.4271319084916184 0.4271319084916184 0.4271319084916184 -0.003004953396684847 -0.003004953396684847 -0.003004953396684847 0.02052800110675698 
0.02052800110675698 0.02052800110675698 0.2350254013639164 0.2350254013639164 0.2350254013639164 0.2539464730327856 0.2539464730327856 0.2539464730327856 -0.3676377317220711 
-0.3676377317220711 -0.3676377317220711 -0.3729575344189849 -0.3729575344189849 -0.3729575344189849 0.5533142352171373 0.5533142352171373 0.5533142352171373 0.5550226542677581 
0.5550226542677581 0.5550226542677581 -0.6373222153944597 -0.6373222153944597 -0.6373222153944597 -0.6208849637466088 -0.6208849637466088 -0.6208849637466088 0.5977094369465971 
0.5977094369465971 0.5977094369465971 0.5858317249068115 0.5858317249068115 0.5858317249068115 0.6240758904419031 0.6240758904419031 0.6240758904419031 0.6203345082107667 
0.6203345082107667 0.6203345082107667 -0.2292939390364091 -0.2292939390364091 -0.2292939390364091 -0.2560769204199018 -0.2560769204199018 -0.2560769204199018 0.2022809434857722 
0.2022809434857722 0.2022809434857722 0.2243642328303021 0.2243642328303021 0.2243642328303021 0.7745004932169897 0.7745004932169897 0.7745004932169897 0.7834994247980553 
0.7834994247980553 0.7834994247980553 -0.04943080307952317 -0.04943080307952317 -0.04943080307952317 -0.06005510484272598 -0.06005510484272598 -0.06005510484272598 -0.1959172189873432 
-0.1959172189873432 -0.1959172189873432 -0.2120501576445538 -0.2120501576445538 -0.2120501576445538 0.5768197004864936 0.5768197004864936 0.5768197004864936 0.5794826515055741 
0.5794826515055741 0.5794826515055741 0.7132739137044 0.7132739137044 0.7132739137044 0.7208922465752097 0.7208922465752097 0.7208922465752097 -0.2299248253826521 
-0.2299248253826521 -0.2299248253826521 -0.2377631777723411 -0.2377631777723411 -0.2377631777723411 0.3419971003657037 0.3419971003657037 0.3419971003657037 0.3337365701152857 
0.3337365701152857 0.3337365701152857 0.7081291634825 0.7081291634825 0.7081291634825 0.6988896118713019 0.6988896118713019 0.6988896118713019 0.2025220374365181 
0.2025220374365181 0.2025220374365181 0.1936007134790105 0.1936007134790105 0.1936007134790105 0.3324052841893054 0.3324052841893054 0.3324052841893054 0.3396106721386313 
0.3396106721386313 0.3396106721386313 0.2761953030552742 0.2761953030552742 0.2761953030552742 0.28186085482857 0.28186085482857 0.28186085482857 -0.2338175187681384 
-0.2338175187681384 -0.2338175187681384 -0.2400129001708874 -0.2400129001708874 -0.2400129001708874 0.5207948608145514 0.5207948608145514 0.5207948608145514 0.5088623335498164 
0.5088623335498164 0.5088623335498164 0.003488020838281436 0.003488020838281436 0.003488020838281436 0.01417847462848701 0.01417847462848701 0.01417847462848701 -0.2739692230562262 
-0.2739692230562262 -0.2739692230562262 -0.2681235444796101 -0.2681235444796101 -0.2681235444796101 0.3995743758277999 0.3995743758277999 0.3995743758277999 -0.8724427396003632 
-0.8724427396003632 -0.8724427396003632 -0.8731346122150982 -0.8731346122150982 -0.8731346122150982 -0.4731837030453075 -0.4731837030453075 -0.4731837030453075 -0.464335517671296 
-0.464335517671296 -0.464335517671296 0.4097604070346058 0.4097604070346058 0.4097604070346058 0.3972300283390693 0.3972300283390693 0.3972300283390693 0.7195272706353162 
0.7195272706353162 0.7195272706353162 0.7148491820855523 0.7148491820855523 0.7148491820855523 -0.4926921911520237 -0.4926921911520237 -0.4926921911520237 -0.4816132814296732 
-0.4816132814296732 -0.4816132814296732 -0.5275842586812904 -0.5275842586812904 -0.5275842586812904 0.1567391655358945 0.1567391655358945 0.1567391655358945 -0.5157097815361404 
-0.5157097815361404 -0.5157097815361404 -0.9135658199533482 -0.9135658199533482 -0.9135658199533482 0.1906453495632682 0.1906453495632682 0.1906453495632682 0.2757844049072596 
0.2757844049072596 0.2757844049072596 0.04036205406906387 0.04036205406906387 0.04036205406906387 0.4189903929894895 0.4189903929894895 0.4189903929894895 -0.2700426162242164 
-0.2700426162242164 -0.2700426162242164 0.6990722147784023 0.6990722147784023 0.6990722147784023 -0.8516512724990265 -0.8516512724990265 -0.8516512724990265 -0.329641403095607 
-0.329641403095607 -0.329641403095607 -0.3139249153235447 -0.3139249153235447 -0.3139249153235447 -0.01396717865180735 -0.01396717865180735 -0.01396717865180735 0.01167447085929516 
0.01167447085929516 0.01167447085929516 0.7087437049189385 0.7087437049189385 0.7087437049189385 0.7032964440149576 0.7032964440149576 0.7032964440149576 0.7366840298964135 
0.7366840298964135 0.7366840298964135 0.7449192752034262 0.7449192752034262 0.7449192752034262 -0.7306581561722258 -0.7306581561722258 -0.7306581561722258 -0.7530168751332182 
-0.7530168751332182 -0.7530168751332182 -0.1887875406588084 -0.1887875406588084 -0.1887875406588084 -0.1585174014429074 -0.1585174014429074 -0.1585174014429074 -0.1441743370679716 
-0.1441743370679716 -0.1441743370679716 -0.1527450439927169 -0.1527450439927169 -0.1527450439927169 -0.3742708393282058 -0.3742708393282058 -0.3742708393282058 -0.3959391487360944 
-0.3959391487360944 -0.3959391487360944 -0.3998614783619131 -0.3998614783619131 -0.3998614783619131 -0.373556788244211 -0.373556788244211 -0.373556788244211 0.6094301015042588 
0.6094301015042588 0.6094301015042588 0.6034379457020194 0.6034379457020194 0.6034379457020194 -0.3242570683503598 -0.3242570683503598 -0.3242570683503598 -0.3075753218658035 
-0.3075753218658035 -0.3075753218658035 0.08849655394966538 0.08849655394966538 0.08849655394966538 0.1019724656613848 0.1019724656613848 0.1019724656613848 -0.1524025680687237 
-0.1524025680687237 -0.1524025680687237 -0.1471418621657929 -0.1471418621657929 -0.1471418621657929 -0.2651327481988451 -0.2651327481988451 -0.2651327481988451 -0.2721148080792397 
-0.2721148080792397 -0.2721148080792397 0.6244487733848504 0.6244487733848504 0.6244487733848504 0.6020686244406741 0.6020686244406741 0.6020686244406741 0.1461971639698118 
0.1461971639698118 0.1461971639698118 0.172888903175688 0.172888903175688 0.172888903175688 -0.132192267576661 -0.132192267576661 -0.132192267576661 -0.1130427919962807 
-0.1130427919962807 -0.1130427919962807 -0.5391618857653644 -0.5391618857653644 -0.5391618857653644 -0.5559403240697104 -0.5559403240697104 -0.5559403240697104 -0.8155765620243339 
-0.8155765620243339 -0.8155765620243339 -0.8212033294471476 -0.8212033294471476 -0.8212033294471476 -0.03343158652639271 -0.03343158652639271 -0.03343158652639271 -0.03681029320371729 
-0.03681029320371729 -0.03681029320371729 0.9093221199813519 0.9093221199813519 0.9093221199813519 0.8980789537122282 0.8980789537122282 0.8980789537122282 -0.2074158615790661 
-0.2074158615790661 -0.2074158615790661 -0.182674195223769 -0.182674195223769 -0.182674195223769 -0.6297140708363994 -0.6297140708363994 -0.6297140708363994 -0.6462577235737426 
-0.6462577235737426 -0.6462577235737426 0.3857405499033867 0.3857405499033867 0.3857405499033867 0.39704011386251 0.39704011386251 0.39704011386251 -0.378770467729255 
-0.378770467729255 -0.378770467729255 -0.377627940187105 -0.377627940187105 -0.377627940187105 0.401564640440903 0.401564640440903 0.401564640440903 0.4058214531138229 
0.4058214531138229 0.4058214531138229 0.4007301519064411 0.4007301519064411 0.4007301519064411 0.3747369031552359 0.3747369031552359 0.3747369031552359 0.6739374839899637 
0.6739374839899637 0.6739374839899637 0.6859495837600775 0.6859495837600775 0.6859495837600775 0.4626077715852849 0.4626077715852849 0.4626077715852849 0.4792215823854921 
0.4792215823854921 0.4792215823854921 0.0111406153903094 0.0111406153903094 0.0111406153903094 -0.01318998165812852 -0.01318998165812852 -0.01318998165812852 0.8663837385813548 
0.8663837385813548 0.8663837385813548 0.8786373647750008 0.8786373647750008 0.8786373647750008 0.08171173574367431 0.08171173574367431 0.08171173574367431 0.1129970920998823 
0.1129970920998823 0.1129970920998823 -0.5691737846639557 -0.5691737846639557 -0.5691737846639557 -0.5648591312259394 -0.5648591312259394 -0.5648591312259394 -0.531286481976897 
-0.531286481976897 -0.531286481976897 -0.5546128678491054 -0.5546128678491054 -0.5546128678491054 0.1947861284631093 0.1947861284631093 0.1947861284631093 0.2147163495644362 
0.2147163495644362 0.2147163495644362 -0.4748869443165273 -0.4748869443165273 -0.4748869443165273 -0.476169550087067 -0.476169550087067 -0.476169550087067 0.3877465761477348 
0.3877465761477348 0.3877465761477348 0.3743536295054923 0.3743536295054923 0.3743536295054923 -0.6217633853967652 -0.6217633853967652 -0.6217633853967652 -0.6541725669695236 
-0.6541725669695236 -0.6541725669695236 -0.193412935131497 -0.193412935131497 -0.193412935131497 -0.1690032830776527 -0.1690032830776527 -0.1690032830776527 -0.7874129262775638 
-0.7874129262775638 -0.7874129262775638 -0.7891490760754825 -0.7891490760754825 -0.7891490760754825 -0.3747741606874611 -0.3747741606874611 -0.3747741606874611 -0.3473215402868055 
-0.3473215402868055 -0.3473215402868055 0.2879872297849393 0.2879872297849393 0.2879872297849393 0.3141698346269935 0.3141698346269935 0.3141698346269935 0.4633126416541895 
0.4633126416541895 0.4633126416541895 0.4786189198647546 0.4786189198647546 0.4786189198647546 -0.6185445804945371 -0.6185445804945371 -0.6185445804945371 -0.6355686180447475 
-0.6355686180447475 -0.6355686180447475 0.09389735085553266 0.09389735085553266 0.09389735085553266 0.08511997978252052 0.08511997978252052 0.08511997978252052 0.6473367975407097 
0.6473367975407097 0.6473367975407097 0.6384057127456485 0.6384057127456485 0.6384057127456485 -0.07122795099573283 -0.07122795099573283 -0.07122795099573283 -0.06068239005379459 
-0.06068239005379459 -0.06068239005379459 -0.7046443120521452 -0.7046443120521452 -0.7046443120521452 -0.7266198230192957 -0.7266198230192957 -0.7266198230192957 0.6369677029834386 
0.6369677029834386 0.6369677029834386 0.6433802965380926 0.6433802965380926 0.6433802965380926 -0.01688093378723433 -0.01688093378723433 -0.01688093378723433 -0.014619387277881 
-0.014619387277881 -0.014619387277881 -0.4911615449735174 -0.4911615449735174 -0.4911615449735174 -0.5177269023780336 -0.5177269023780336 -0.5177269023780336 0.2919013530887004 
0.2919013530887004 0.2919013530887004 0.31975614797824 0.31975614797824 0.31975614797824 0.1742812261421791 0.1742812261421791 0.1742812261421791 0.1937791241292234 
0.1937791241292234 0.1937791241292234 -0.02018213486158855 -0.02018213486158855 -0.02018213486158855 -0.008364667297612427 -0.008364667297612427 -0.008364667297612427 -0.01894449671752294 
-0.01894449671752294 -0.01894449671752294 -0.0257088860915843 -0.0257088860915843 -0.0257088860915843 0.07174857203997245 0.07174857203997245 0.07174857203997245 0.05829583678665774 
0.05829583678665774 0.05829583678665774 -0.2154118155189573 -0.2154118155189573 -0.2154118155189573 -0.2371321161401557 -0.2371321161401557 -0.2371321161401557 0.292250778403696 
0.292250778403696 0.292250778403696 0.2829718040586764 0.2829718040586764 0.2829718040586764 -0.8908552904519494 -0.8908552904519494 -0.8908552904519494 -0.8792514816631847 
-0.8792514816631847 -0.8792514816631847 -0.5584799799825214 -0.5584799799825214 -0.5584799799825214 -0.5366606489212563 -0.5366606489212563 -0.5366606489212563 -0.4594923705550463 
-0.4594923705550463 -0.4594923705550463 -0.4549493423450365 -0.4549493423450365 -0.4549493423450365 0.1079829537494054 0.1079829537494054 0.1079829537494054 0.143041365372776 
0.143041365372776 0.143041365372776 -0.6211666472143365 -0.6211666472143365 -0.6211666472143365 -0.6138017398720282 -0.6138017398720282 -0.6138017398720282 -0.5940446736782536 
-0.5940446736782536 -0.5940446736782536 -0.6088049700407834 -0.6088049700407834 -0.6088049700407834 0.7302134310879068 0.7302134310879068 0.7302134310879068 0.7509667220800171 
0.7509667220800171 0.7509667220800171 -0.2516907310349428 -0.2516907310349428 -0.2516907310349428 -0.2462078216242211 -0.2462078216242211 -0.2462078216242211 0.6961735163996003 
0.6961735163996003 0.6961735163996003 0.675947338119877 0.675947338119877 0.675947338119877 0.1276097900855149 0.1276097900855149 0.1276097900855149 0.126696632126779 
0.126696632126779 0.126696632126779 0.1094303451873661 0.1094303451873661 0.1094303451873661 0.1096408671213429 0.1096408671213429 0.1096408671213429 -0.5557517357667952 
-0.5557517357667952 -0.5557517357667952 -0.5485684771887716 -0.5485684771887716 -0.5485684771887716 -0.572829886101928 -0.572829886101928 -0.572829886101928 -0.04152170991566329 
-0.04152170991566329 -0.04152170991566329 0.003810005385623579 0.003810005385623579 0.003810005385623579 0.01009929959080063 0.01009929959080063 0.01009929959080063 0.03299434984017857 
0.03299434984017857 0.03299434984017857 0.5423154110943627 0.5423154110943627 0.5423154110943627 0.5391606813878147 0.5391606813878147 0.5391606813878147 0.5541909667949783 
0.5541909667949783 0.5541909667949783 0.4627850632351903 0.4627850632351903 0.4627850632351903 0.4567889530242488 0.4567889530242488 0.4567889530242488 0.4417215148602842 
0.4417215148602842 0.4417215148602842 0.415376638813467 0.415376638813467 0.415376638813467 0.4351632086687081 0.4351632086687081 0.4351632086687081 0.4385000149038872 
0.4385000149038872 0.4385000149038872 0.5767394922463207 0.5767394922463207 0.5767394922463207 0.5816662593378891 0.5816662593378891 0.5816662593378891 0.5869927131487171 
0.5869927131487171 0.5869927131487171 -0.05772603595746484 -0.05772603595746484 -0.05772603595746484 -0.06047930800746627 -0.06047930800746627 -0.06047930800746627 -0.07494738797606454 
-0.07494738797606454 -0.07494738797606454 -0.3408352925785328 -0.3408352925785328 -0.3408352925785328 -0.3383527680837682 -0.3383527680837682 -0.3383527680837682 -0.3222300380543951 
-0.3222300380543951 -0.3222300380543951 -0.3252142221255909 -0.3252142221255909 -0.3252142221255909 -0.2986111508732563 -0.2986111508732563 -0.2986111508732563 -0.2887373302208579 
-0.2887373302208579 -0.2887373302208579 -0.7448459600675976 -0.7448459600675976 -0.7448459600675976 -0.7525700906882122 -0.7525700906882122 -0.7525700906882122 -0.7649775175422909 
-0.7649775175422909 -0.7649775175422909 -0.8860934201221389 -0.8860934201221389 -0.8860934201221389 -0.8925917350423421 -0.8925917350423421 -0.8925917350423421 -0.8939404690342523 
-0.8939404690342523 -0.8939404690342523 -0.5853873333089621 -0.5853873333089621 -0.5853873333089621 -0.5906437778740287 -0.5906437778740287 -0.5906437778740287 0.5609055439855907 
0.5609055439855907 0.5609055439855907 0.5508379084058228 0.5508379084058228 0.5508379084058228 0.5385249176449883 0.5385249176449883 0.5385249176449883 0.3567850300429714 
0.3567850300429714 0.3567850300429714 0.3674130581448641 0.3674130581448641 0.3674130581448641 0.3858074067842006 0.3858074067842006 0.3858074067842006 -0.2051980967518127 
-0.2051980967518127 -0.2051980967518127 -0.215003129500325 -0.215003129500325 -0.215003129500325 -0.22238492102791 -0.22238492102791 -0.22238492102791 -0.3344774439243999 
-0.3344774439243999 -0.3344774439243999 -0.3469466035327072 -0.3469466035327072 -0.3469466035327072 -0.348878233064425 -0.348878233064425 -0.348878233064425 0.3537441990216666 
0.3537441990216666 0.3537441990216666 0.3501218372204211 0.3501218372204211 0.3501218372204211 0.3451916932533208 0.3451916932533208 0.3451916932533208 0.5407073630005891 
0.5407073630005891 0.5407073630005891 0.5430394382885997 0.5430394382885997 0.5430394382885997 0.5498579975418947 0.5498579975418947 0.5498579975418947 -0.02862722992902308 
-0.02862722992902308 -0.02862722992902308 -0.02748171951722243 -0.02748171951722243 -0.02748171951722243 0.9404395516945832 0.9404395516945832 0.9404395516945832 0.9397925866539947 
0.9397925866539947 0.9397925866539947 -0.2798393587582839 -0.2798393587582839 -0.2798393587582839 -0.2863414211170041 -0.2863414211170041 -0.2863414211170041 0.8580969751708435 
0.8580969751708435 0.8580969751708435 0.8544479424555667 0.8544479424555667 0.8544479424555667 0.4894792428326202 0.4894792428326202 0.4894792428326202 0.4948210456854819 
0.4948210456854819 0.4948210456854819 0.02314282181284394 0.02314282181284394 0.02314282181284394 0.02294589875913113 0.02294589875913113 0.02294589875913113 0.4054596321532413 
0.4054596321532413 0.4054596321532413 0.4146654481527424 0.4146654481527424 0.4146654481527424 0.07699908210562342 0.07699908210562342 0.07699908210562342 0.06368464063457885 
0.06368464063457885 0.06368464063457885 0.3713141905847446 0.3713141905847446 0.3713141905847446 0.3683940968618857 0.3683940968618857 0.3683940968618857 0.3175813899459343 
0.3175813899459343 0.3175813899459343 0.3077386606202026 0.3077386606202026 0.3077386606202026 0.1216433610341102 0.1216433610341102 0.1216433610341102 0.1152715169565538 
0.1152715169565538 0.1152715169565538 -0.135518330017882 -0.135518330017882 -0.135518330017882 -0.1533898365608095 -0.1533898365608095 -0.1533898365608095 -0.5784205824358047 
-0.5784205824358047 -0.5784205824358047 -0.5728229872829939 -0.5728229872829939 -0.5728229872829939 0.1687512451680335 0.1687512451680335 0.1687512451680335 0.184974181280273 
0.184974181280273 0.184974181280273 0.5038351537093458 0.5038351537093458 0.5038351537093458 0.5090732248570884 0.5090732248570884 0.5090732248570884 -0.4203371333139714 
-0.4203371333139714 -0.4203371333139714 -0.4266957549066371 -0.4266957549066371 -0.4266957549066371 0.1123952683955884 0.1123952683955884 0.1123952683955884 0.08753261554452325 
0.08753261554452325 0.08753261554452325 -0.9093374284046766 -0.9093374284046766 -0.9093374284046766 -0.9149696382752592 -0.9149696382752592 -0.9149696382752592 0.2989368456254231 
0.2989368456254231 0.2989368456254231 0.3062646923240498 0.3062646923240498 0.3062646923240498 0.1028099993913339 0.1028099993913339 0.1028099993913339 0.08793195067568822 
0.08793195067568822 0.08793195067568822 -0.3967359905301626 -0.3967359905301626 -0.3967359905301626 -0.3937636836455251 -0.3937636836455251 -0.3937636836455251 -0.0109626814599731 
-0.0109626814599731 -0.0109626814599731 -0.00880384748379095 -0.00880384748379095 -0.00880384748379095 0.1673665014590168 0.1673665014590168 0.1673665014590168 0.1368883235019476 
0.1368883235019476 0.1368883235019476 0.2109193516342441 0.2109193516342441 0.2109193516342441 0.2088524826636977 0.2088524826636977 0.2088524826636977 0.5071052861144851 
0.5071052861144851 0.5071052861144851 0.482394179075312 0.482394179075312 0.482394179075312 0.0412236871826595 0.0412236871826595 0.0412236871826595 0.03170800675853045 
0.03170800675853045 0.03170800675853045 0.2727231893386562 0.2727231893386562 0.2727231893386562 0.2977505186957885 0.2977505186957885 0.2977505186957885 -0.5891087166073047 
-0.5891087166073047 -0.5891087166073047 -0.5958702460767227 -0.5958702460767227 -0.5958702460767227 0.1452335863364019 0.1452335863364019 0.1452335863364019 0.1346332538283554 
0.1346332538283554 0.1346332538283554 -0.06211405994655515 -0.06211405994655515 -0.06211405994655515 -0.06908418295685648 -0.06908418295685648 -0.06908418295685648 0.07053783034242207 
0.07053783034242207 0.07053783034242207 0.07222378206392265 0.07222378206392265 0.07222378206392265 0.06737665946083395 0.06737665946083395 0.06737665946083395 0.0567109730000604 
0.0567109730000604 0.0567109730000604 -0.5589553825284707 -0.5589553825284707 -0.5589553825284707 -0.5480239494612931 -0.5480239494612931 -0.5480239494612931 -0.6095865866815222 
-0.6095865866815222 -0.6095865866815222 -0.6343106895447959 -0.6343106895447959 -0.6343106895447959 0.6976381960988274 0.6976381960988274 0.6976381960988274 0.7056821240058615 
0.7056821240058615 0.7056821240058615 0.3033591830588634 0.3033591830588634 0.3033591830588634 0.294134796482391 0.294134796482391 0.294134796482391 0.2990558335539644 
0.2990558335539644 0.2990558335539644 0.2890582348187322 0.2890582348187322 0.2890582348187322 0.02847704224631258 0.02847704224631258 0.02847704224631258 0.0336583269543343 
0.0336583269543343 0.0336583269543343 0.3784757466657028 0.3784757466657028 0.3784757466657028 0.3586088671451806 0.3586088671451806 0.3586088671451806 0.276790687455983 
0.276790687455983 0.276790687455983 0.2689253693530306 0.2689253693530306 0.2689253693530306 0.5801665298148511 0.5801665298148511 0.5801665298148511 0.5721713576221545 
0.5721713576221545 0.5721713576221545 -0.02042628601858841 -0.02042628601858841 -0.02042628601858841 -0.02004216463118063 -0.02004216463118063 -0.02004216463118063 0.2720329698787621 
0.2720329698787621 0.2720329698787621 0.2738179175916699 0.2738179175916699 0.2738179175916699 0.09496993933717532 0.09496993933717532 0.09496993933717532 0.1103563317861789 
0.1103563317861789 0.1103563317861789 -0.5642785978899629 -0.5642785978899629 -0.5642785978899629 -0.5795483915793145 -0.5795483915793145 -0.5795483915793145 0.4421559840668479 
0.4421559840668479 0.4421559840668479 0.4534703568532492 0.4534703568532492 0.4534703568532492 0.2288148413136287 0.2288148413136287 0.2288148413136287 0.2294887399425549 
0.2294887399425549 0.2294887399425549 -0.57847342140963 -0.57847342140963 -0.57847342140963 -0.5986358931439888 -0.5986358931439888 -0.5986358931439888 -0.02062199630188003 
-0.02062199630188003 -0.02062199630188003 -0.02052310591842139 -0.02052310591842139 -0.02052310591842139 -0.6947601611124632 -0.6947601611124632 -0.6947601611124632 -0.7008057116029286 
-0.7008057116029286 -0.7008057116029286 -0.2655729742534776 -0.2655729742534776 -0.2655729742534776 -0.2369264969120896 -0.2369264969120896 -0.2369264969120896 0.9096936038533628 
0.9096936038533628 0.9096936038533628 0.9138933772243052 0.9138933772243052 0.9138933772243052 0.2320271535179473 0.2320271535179473 0.2320271535179473 0.2217533577859944 
0.2217533577859944 0.2217533577859944 -0.209042464766958 -0.209042464766958 -0.209042464766958 -0.2026773378835031 -0.2026773378835031 -0.2026773378835031 0.7051807126062878 
0.7051807126062878 0.7051807126062878 0.6974622311435275 0.6974622311435275 0.6974622311435275 0.275548496509205 0.275548496509205 0.275548496509205 0.2894373203572322 
0.2894373203572322 0.2894373203572322 0.1269627336765366 0.1269627336765366 0.1269627336765366 0.1186721894514103 0.1186721894514103 0.1186721894514103 0.2983541460334738 
0.2983541460334738 0.2983541460334738 0.3126804818202961 0.3126804818202961 0.3126804818202961 0.1879478981661359 0.1879478981661359 0.1879478981661359 0.1984807437208694 
0.1984807437208694 0.1984807437208694 -0.3142683052514361 -0.3142683052514361 -0.3142683052514361 -0.3203589621186181 -0.3203589621186181 -0.3203589621186181 -0.1207784048226693 
-0.1207784048226693 -0.1207784048226693 -0.1141074861725025 -0.1141074861725025 -0.1141074861725025 0.2957585948979308 0.2957585948979308 0.2957585948979308 0.2924844471014614 
0.2924844471014614 0.2924844471014614 0.2641669743523721 0.2641669743523721 0.2641669743523721 0.2543060032879813 0.2543060032879813 0.2543060032879813 -0.5985134716052709 
-0.5985134716052709 -0.5985134716052709 -0.6070278760376725 -0.6070278760376725 -0.6070278760376725 0.1505273074387137 0.1505273074387137 0.1505273074387137 0.1570749673427193 
0.1570749673427193 0.1570749673427193 -0.006225514064034383 -0.006225514064034383 -0.006225514064034383 -0.01436305053296841 -0.01436305053296841 -0.01436305053296841 0.6515881272364081 
0.6515881272364081 0.6515881272364081 0.6641309742477568 0.6641309742477568 0.6641309742477568 -0.1234797720166134 -0.1234797720166134 -0.1234797720166134 -0.127302359602813 
-0.127302359602813 -0.127302359602813 -0.7099760304927504 -0.7099760304927504 -0.7099760304927504 -0.7200200883241866 -0.7200200883241866 -0.7200200883241866 0.6635295544721339 
0.6635295544721339 0.6635295544721339 0.6606789809072712 0.6606789809072712 0.6606789809072712 -0.09368706198478338 -0.09368706198478338 -0.09368706198478338 -0.09834524535651809 
-0.09834524535651809 -0.09834524535651809 -0.0810106619930744 -0.0810106619930744 -0.0810106619930744 -0.08581914686156333 -0.08581914686156333 -0.08581914686156333 0.1759428854239693 
0.1759428854239693 0.1759428854239693 0.184835897185562 0.184835897185562 0.184835897185562 0.5232527932067036 0.5232527932067036 0.5232527932067036 0.5406413163304844 
0.5406413163304844 0.5406413163304844 -0.8115122545038456 -0.8115122545038456 -0.8115122545038456 -0.8043026563061835 -0.8043026563061835 -0.8043026563061835 0.1401122276540947 
0.1401122276540947 0.1401122276540947 0.1513713334262189 0.1513713334262189 0.1513713334262189 0.3618858335370999 0.3618858335370999 0.3618858335370999 0.373701889027572 
0.373701889027572 0.373701889027572 0.09298661007222216 0.09298661007222216 0.09298661007222216 0.07718377048596758 0.07718377048596758 0.07718377048596758 0.001475465112243767 
0.001475465112243767 0.001475465112243767 -0.004085106635939176 -0.004085106635939176 -0.004085106635939176 0.06460134656619065 0.06460134656619065 0.06460134656619065 0.06565333371897772 
0.06565333371897772 0.06565333371897772 0.06912149568704776 0.06912149568704776 0.06912149568704776 0.0693828657895102 0.0693828657895102 0.0693828657895102 -0.6867848057201948 
-0.6867848057201948 -0.6867848057201948 -0.6975842567385382 -0.6975842567385382 -0.6975842567385382 -0.08612089517414237 -0.08612089517414237 -0.08612089517414237 -0.09169621192607698 
-0.09169621192607698 -0.09169621192607698 0.0504597003263215 0.0504597003263215 0.0504597003263215 0.04391342478569162 0.04391342478569162 0.04391342478569162 0.08698705957591873 
0.08698705957591873 0.08698705957591873 0.1039285933874435 0.1039285933874435 0.1039285933874435 -0.3967467451771544 -0.3967467451771544 -0.3967467451771544 -0.4165467744497074 
-0.4165467744497074 -0.4165467744497074 0.3752212959626576 0.3752212959626576 0.3752212959626576 0.3727547154860134 0.3727547154860134 0.3727547154860134 -0.8251780932917885 
-0.8251780932917885 -0.8251780932917885 -0.8166660280782155 -0.8166660280782155 -0.8166660280782155 0.7524648825791603 0.7524648825791603 0.7524648825791603 0.749596118333642 
0.749596118333642 0.749596118333642 -0.8505575847568596 -0.8505575847568596 -0.8505575847568596 -0.8424448669789563 -0.8424448669789563 -0.8424448669789563 -0.280589010505201 
-0.280589010505201 -0.280589010505201 -0.2660253874640096 -0.2660253874640096 -0.2660253874640096 0.386842955250755 0.386842955250755 0.386842955250755 0.388881757169048 
0.388881757169048 0.388881757169048 -0.2327239662165678 -0.2327239662165678 -0.2327239662165678 -0.2435789924955201 -0.2435789924955201 -0.2435789924955201 0.6528070546134022 
0.6528070546134022 0.6528070546134022 0.6430501413742242 0.6430501413742242 0.6430501413742242 -0.2743306620875445 -0.2743306620875445 -0.2743306620875445 -0.2813916022206001 
-0.2813916022206001 -0.2813916022206001 -0.384927214135439 -0.384927214135439 -0.384927214135439 -0.3920910095119735 -0.3920910095119735 -0.3920910095119735 0.2574334603518383 
0.2574334603518383 0.2574334603518383 0.2487757339231637 0.2487757339231637 0.2487757339231637 -0.2499061582773591 -0.2499061582773591 -0.2499061582773591 -0.2365947556195482 
-0.2365947556195482 -0.2365947556195482 0.8614540655885238 0.8614540655885238 0.8614540655885238 0.854599536859495 0.854599536859495 0.854599536859495 -0.6094611369522805 