Title = Triangle150
FileType = Solution
Variables = q
Zone T = Triangle150
ZoneType = FETriangle
Nodes = 212082
Elements = 70694
DataPacking = Block
StrandID = 4
SolutionTime = 0.3
0.002237819292962896 0.002237819292962896 0.002237819292962896 0.005244996885066294 0.005244996885066294 0.005244996885066294 0.006553771702306054 0.006553771702306054 0.006553771702306054 0.1878144074682458 
0.1878144074682458 0.1878144074682458 0.1910077513048147 0.1910077513048147 0.1910077513048147 0.2028911822483163 0.2028911822483163 0.2028911822483163 -0.08607018454714779 
-0.08607018454714779 -0.08607018454714779 -0.1053583632380471 -0.1053583632380471 -0.1053583632380471 -0.1190643777616325 -0.1190643777616325 -0.1190643777616325 0.3436872492269972 
0.3436872492269972 0.3436872492269972 0.3549682849469305 0.3549682849469305 0.3549682849469305 0.3694765760506917 0.3694765760506917 0.3694765760506917 -0.3494255921414169 
-0.3494255921414169 -0.3494255921414169 -0.3751804242198409 -0.3751804242198409 -0.3751804242198409 -0.3693413838045552 -0.3693413838045552 -0.3693413838045552 -0.665698228879236 
-0.665698228879236 -0.665698228879236 -0.673098626576575 -0.673098626576575 -0.673098626576575 -0.683470688930536 -0.683470688930536 -0.683470688930536 -0.5603533542914489 
-0.5603533542914489 -0.5603533542914489 -0.5382288249240064 -0.5382288249240064 -0.5382288249240064 0.9695584630442263 0.9695584630442263 0.9695584630442263 0.9698056756283226 
0.9698056756283226 0.9698056756283226 0.1755063343256726 0.1755063343256726 0.1755063343256726 0.1488647515800638 0.1488647515800638 0.1488647515800638 -0.07982358085216026 
-0.07982358085216026 -0.07982358085216026 -0.07533513507355619 -0.07533513507355619 -0.07533513507355619 -0.4071757178318038 -0.4071757178318038 -0.4071757178318038 -0.3972819350185463 
-0.3972819350185463 -0.3972819350185463 0.9544221708583107 0.9544221708583107 0.9544221708583107 0.9471642189938956 0.9471642189938956 0.9471642189938956 0.1049321302359182 
0.1049321302359182 0.1049321302359182 0.09875902157721139 0.09875902157721139 0.09875902157721139 -0.11900880941594 -0.11900880941594 -0.11900880941594 -0.1340360025835034 
-0.1340360025835034 -0.1340360025835034 -0.9376876009632071 -0.9376876009632071 -0.9376876009632071 -0.9415249361469453 -0.9415249361469453 -0.9415249361469453 -0.5535511720058797 
-0.5535511720058797 -0.5535511720058797 -0.5334663526038438 -0.5334663526038438 -0.5334663526038438 0.3924015675462449 0.3924015675462449 0.3924015675462449 0.3822659224106326 
0.3822659224106326 0.3822659224106326 0.5011026837370841 0.5011026837370841 0.5011026837370841 0.5088857768157009 0.5088857768157009 0.5088857768157009 0.01687977462716602 
0.01687977462716602 0.01687977462716602 0.01566309225448007 0.01566309225448007 0.01566309225448007 0.3048204094757256 0.3048204094757256 0.3048204094757256 0.3050991901468159 
0.3050991901468159 0.3050991901468159 -0.01798495413458676 -0.01798495413458676 -0.01798495413458676 -0.009829938414920993 -0.009829938414920993 -0.009829938414920993 -0.005766624341575315 
-0.005766624341575315 -0.005766624341575315 0.01533061234635845 0.01533061234635845 0.01533061234635845 -0.32303692992311 -0.32303692992311 -0.32303692992311 -0.3049823997566281 
-0.3049823997566281 -0.3049823997566281 0.5981111567752442 0.5981111567752442 0.5981111567752442 0.6054401540917718 0.6054401540917718 0.6054401540917718 -0.0316080933329323 
-0.0316080933329323 -0.0316080933329323 -0.02419425020888133 -0.02419425020888133 -0.02419425020888133 -0.3575905833077265 -0.3575905833077265 -0.3575905833077265 -0.3749748276194823 
-0.3749748276194823 -0.3749748276194823 -0.7659534232750552 -0.7659534232750552 -0.7659534232750552 -0.7347018636995988 -0.7347018636995988 -0.7347018636995988 -0.4423825969234628 
-0.4423825969234628 -0.4423825969234628 -0.4485668720842068 -0.4485668720842068 -0.4485668720842068 0.09094699255183732 0.09094699255183732 0.09094699255183732 0.07990684474722426 
0.07990684474722426 0.07990684474722426 0.4201979320346844 0.4201979320346844 0.4201979320346844 0.4293395887435949 0.4293395887435949 0.4293395887435949 0.725813917266632 
0.725813917266632 0.725813917266632 0.7292927495488356 0.7292927495488356 0.7292927495488356 0.3645728981435653 0.3645728981435653 0.3645728981435653 0.3564852652071216 
0.3564852652071216 0.3564852652071216 -0.1088031735565622 -0.1088031735565622 -0.1088031735565622 -0.117488185810369 -0.117488185810369 -0.117488185810369 0.5622087242623082 
0.5622087242623082 0.5622087242623082 0.573727862611755 0.573727862611755 0.573727862611755 0.08247982365815923 0.08247982365815923 0.08247982365815923 0.09279820098927186 
0.09279820098927186 0.09279820098927186 -0.6745856891750077 -0.6745856891750077 -0.6745856891750077 -0.6770786010740828 -0.6770786010740828 -0.6770786010740828 0.4645669172711194 
0.4645669172711194 0.4645669172711194 0.4645027099491227 0.4645027099491227 0.4645027099491227 -0.7160860088342991 -0.7160860088342991 -0.7160860088342991 -0.7241426474659299 
-0.7241426474659299 -0.7241426474659299 0.6767650601587204 0.6767650601587204 0.6767650601587204 0.6581125845499201 0.6581125845499201 0.6581125845499201 -0.7281013991673753 
-0.7281013991673753 -0.7281013991673753 -0.7267257556209415 -0.7267257556209415 -0.7267257556209415 -0.7162429172744994 -0.7162429172744994 -0.7162429172744994 -0.7123536548062543 
-0.7123536548062543 -0.7123536548062543 0.8805328869765581 0.8805328869765581 0.8805328869765581 0.8738209363436025 0.8738209363436025 0.8738209363436025 0.9734478928962288 
0.9734478928962288 0.9734478928962288 0.9736451404215569 0.9736451404215569 0.9736451404215569 0.009571105830095353 0.009571105830095353 0.009571105830095353 0.5296817105619726 
0.5296817105619726 0.5296817105619726 0.531697574190813 0.531697574190813 0.531697574190813 -0.6044233330394482 -0.6044233330394482 -0.6044233330394482 -0.611997634735853 
-0.611997634735853 -0.611997634735853 -0.3227963641875092 -0.3227963641875092 -0.3227963641875092 -0.3148467750458264 -0.3148467750458264 -0.3148467750458264 -0.5884487770965061 
-0.5884487770965061 -0.5884487770965061 -0.5837487462472523 -0.5837487462472523 -0.5837487462472523 -0.006939258303372536 -0.006939258303372536 -0.006939258303372536 -0.006013148386282544 
-0.006013148386282544 -0.006013148386282544 -0.5341732242087595 -0.5341732242087595 -0.5341732242087595 -0.1493903121891929 -0.1493903121891929 -0.1493903121891929 0.6121211289043895 
0.6121211289043895 0.6121211289043895 0.08051986295534007 0.08051986295534007 0.08051986295534007 0.7433919115465544 0.7433919115465544 0.7433919115465544 0.08675453395607277 
0.08675453395607277 0.08675453395607277 -0.9442405518151986 -0.9442405518151986 -0.9442405518151986 -0.9434568252625821 -0.9434568252625821 -0.9434568252625821 0.1302551819267853 
0.1302551819267853 0.1302551819267853 -0.1366450844712016 -0.1366450844712016 -0.1366450844712016 0.5580832621748576 0.5580832621748576 0.5580832621748576 -0.4067439825677066 
-0.4067439825677066 -0.4067439825677066 -0.3882636412476373 -0.3882636412476373 -0.3882636412476373 0.6673288478245236 0.6673288478245236 0.6673288478245236 0.6599638944907757 
0.6599638944907757 0.6599638944907757 -0.05796175271809072 -0.05796175271809072 -0.05796175271809072 -0.05170912317621738 -0.05170912317621738 -0.05170912317621738 -0.01140969123810478 
-0.01140969123810478 -0.01140969123810478 -0.02310138213351264 -0.02310138213351264 -0.02310138213351264 -0.1158870277119903 -0.1158870277119903 -0.1158870277119903 -0.09955019395032313 
-0.09955019395032313 -0.09955019395032313 -0.02238879977344024 -0.02238879977344024 -0.02238879977344024 -0.01645781628213428 -0.01645781628213428 -0.01645781628213428 0.1515502659764941 
0.1515502659764941 0.1515502659764941 0.121419315657188 0.121419315657188 0.121419315657188 0.02266150673961184 0.02266150673961184 0.02266150673961184 0.01365950610377063 
0.01365950610377063 0.01365950610377063 -0.3143966961310126 -0.3143966961310126 -0.3143966961310126 -0.3072847869463133 -0.3072847869463133 -0.3072847869463133 -0.08730038890891248 
-0.08730038890891248 -0.08730038890891248 -0.06998498114329793 -0.06998498114329793 -0.06998498114329793 -0.7380986412927846 -0.7380986412927846 -0.7380986412927846 -0.7512340733632669 
-0.7512340733632669 -0.7512340733632669 0.3568608965343379 0.3568608965343379 0.3568608965343379 0.3593484660568186 0.3593484660568186 0.3593484660568186 -0.6408829880340543 
-0.6408829880340543 -0.6408829880340543 -0.6203185899679382 -0.6203185899679382 -0.6203185899679382 -0.1318498429201576 -0.1318498429201576 -0.1318498429201576 -0.09470099347213715 
-0.09470099347213715 -0.09470099347213715 -0.1071520596658853 -0.1071520596658853 -0.1071520596658853 -0.07885026537308568 -0.07885026537308568 -0.07885026537308568 -0.9653961118458381 
-0.9653961118458381 -0.9653961118458381 -0.9702329901600663 -0.9702329901600663 -0.9702329901600663 -0.3730326328680429 -0.3730326328680429 -0.3730326328680429 -0.4025490478192547 
-0.4025490478192547 -0.4025490478192547 0.6532778257232118 0.6532778257232118 0.6532778257232118 0.6661794973826969 0.6661794973826969 0.6661794973826969 0.1504770621164234 
0.1504770621164234 0.1504770621164234 0.1692296527061477 0.1692296527061477 0.1692296527061477 0.3243191029955629 0.3243191029955629 0.3243191029955629 0.3131334226907159 
0.3131334226907159 0.3131334226907159 -0.03863893172843838 -0.03863893172843838 -0.03863893172843838 -0.008082419072756421 -0.008082419072756421 -0.008082419072756421 -0.3930214213719808 
-0.3930214213719808 -0.3930214213719808 -0.4046554869640018 -0.4046554869640018 -0.4046554869640018 -0.02370956536708518 -0.02370956536708518 -0.02370956536708518 -0.02685311113880343 
-0.02685311113880343 -0.02685311113880343 0.02651256237493041 0.02651256237493041 0.02651256237493041 0.04215936786558686 0.04215936786558686 0.04215936786558686 -0.3727790227827577 
-0.3727790227827577 -0.3727790227827577 -0.4040934882545761 -0.4040934882545761 -0.4040934882545761 -0.4393277209823111 -0.4393277209823111 -0.4393277209823111 -0.4228303179269033 
-0.4228303179269033 -0.4228303179269033 -0.01377744215188462 -0.01377744215188462 -0.01377744215188462 -0.02236554651906374 -0.02236554651906374 -0.02236554651906374 -0.05018940933046052 
-0.05018940933046052 -0.05018940933046052 -0.05103180034778624 -0.05103180034778624 -0.05103180034778624 0.01294788203337908 0.01294788203337908 0.01294788203337908 0.01540965543705574 
0.01540965543705574 0.01540965543705574 0.367801689522237 0.367801689522237 0.367801689522237 0.3647239520952197 0.3647239520952197 0.3647239520952197 -0.2881505930561613 
-0.2881505930561613 -0.2881505930561613 -0.283781769282856 -0.283781769282856 -0.283781769282856 0.147955674548627 0.147955674548627 0.147955674548627 0.1505229856630413 
0.1505229856630413 0.1505229856630413 -0.1390701887487561 -0.1390701887487561 -0.1390701887487561 -0.1112947104146594 -0.1112947104146594 -0.1112947104146594 0.6934600658243568 
0.6934600658243568 0.6934600658243568 0.6804717286634335 0.6804717286634335 0.6804717286634335 0.2911650469934025 0.2911650469934025 0.2911650469934025 0.2601676777448646 
0.2601676777448646 0.2601676777448646 -0.02893553338035284 -0.02893553338035284 -0.02893553338035284 -0.03782846175677881 -0.03782846175677881 -0.03782846175677881 -0.9407647518149642 
-0.9407647518149642 -0.9407647518149642 -0.9393016141879543 -0.9393016141879543 -0.9393016141879543 -0.4491433800886667 -0.4491433800886667 -0.4491433800886667 -0.4099067934818074 
-0.4099067934818074 -0.4099067934818074 -0.2780757710907741 -0.2780757710907741 -0.2780757710907741 -0.2718369956489488 -0.2718369956489488 -0.2718369956489488 -0.2158082161650603 
-0.2158082161650603 -0.2158082161650603 -0.2089396528575966 -0.2089396528575966 -0.2089396528575966 -0.116764125947074 -0.116764125947074 -0.116764125947074 -0.1455178817001176 
-0.1455178817001176 -0.1455178817001176 0.2364335230414487 0.2364335230414487 0.2364335230414487 0.2473995207085374 0.2473995207085374 0.2473995207085374 0.1536541856631455 
0.1536541856631455 0.1536541856631455 0.122954038637592 0.122954038637592 0.122954038637592 -0.02322225991365353 -0.02322225991365353 -0.02322225991365353 -0.01914435342484215 
-0.01914435342484215 -0.01914435342484215 0.3242391504967901 0.3242391504967901 0.3242391504967901 0.2956528163980639 0.2956528163980639 0.2956528163980639 0.4031258581173579 
0.4031258581173579 0.4031258581173579 0.4188958470235202 0.4188958470235202 0.4188958470235202 -0.793302102599255 -0.793302102599255 -0.793302102599255 -0.7859223938212454 
-0.7859223938212454 -0.7859223938212454 -0.3421114821292202 -0.3421114821292202 -0.3421114821292202 -0.3124271511139187 -0.3124271511139187 -0.3124271511139187 -0.06214263928765205 
-0.06214263928765205 -0.06214263928765205 -0.09182275201298491 -0.09182275201298491 -0.09182275201298491 -0.6235788244544845 -0.6235788244544845 -0.6235788244544845 -0.6534134728446875 
-0.6534134728446875 -0.6534134728446875 0.3994672503642298 0.3994672503642298 0.3994672503642298 0.3940107180973708 0.3940107180973708 0.3940107180973708 -0.9562008290503816 
-0.9562008290503816 -0.9562008290503816 -0.9507654870993943 -0.9507654870993943 -0.9507654870993943 0.5187601084491897 0.5187601084491897 0.5187601084491897 0.4951584705548124 
0.4951584705548124 0.4951584705548124 0.7283170398134644 0.7283170398134644 0.7283170398134644 0.7008317913819424 0.7008317913819424 0.7008317913819424 -0.8458898598795037 
-0.8458898598795037 -0.8458898598795037 -0.8538501592059903 -0.8538501592059903 -0.8538501592059903 0.3995408294379897 0.3995408294379897 0.3995408294379897 0.3832400001566801 
0.3832400001566801 0.3832400001566801 -0.2488691877563655 -0.2488691877563655 -0.2488691877563655 -0.2278731217893504 -0.2278731217893504 -0.2278731217893504 -0.03048308784219181 
-0.03048308784219181 -0.03048308784219181 -0.04755280600603935 -0.04755280600603935 -0.04755280600603935 0.3819112986073377 0.3819112986073377 0.3819112986073377 0.3908202010021924 
0.3908202010021924 0.3908202010021924 -0.02254764388987948 -0.02254764388987948 -0.02254764388987948 -0.01733919210863438 -0.01733919210863438 -0.01733919210863438 -0.6094531153468401 
-0.6094531153468401 -0.6094531153468401 -0.6070579816735578 -0.6070579816735578 -0.6070579816735578 0.3421604360064254 0.3421604360064254 0.3421604360064254 0.3315853862983132 
0.3315853862983132 0.3315853862983132 -0.108891034631433 -0.108891034631433 -0.108891034631433 -0.1235719096815128 -0.1235719096815128 -0.1235719096815128 -0.2844160245954844 
-0.2844160245954844 -0.2844160245954844 -0.2818529563101035 -0.2818529563101035 -0.2818529563101035 -0.3804991498466661 -0.3804991498466661 -0.3804991498466661 -0.3968657826683126 
-0.3968657826683126 -0.3968657826683126 -0.7573519162821287 -0.7573519162821287 -0.7573519162821287 -0.7710110439873099 -0.7710110439873099 -0.7710110439873099 -0.6414671502077507 
-0.6414671502077507 -0.6414671502077507 -0.6527292204236129 -0.6527292204236129 -0.6527292204236129 0.3132867978603785 0.3132867978603785 0.3132867978603785 0.3026722813216158 
0.3026722813216158 0.3026722813216158 0.2954059130523624 0.2954059130523624 0.2954059130523624 0.3376330604779735 0.3376330604779735 0.3376330604779735 -0.5168638965065897 
-0.5168638965065897 -0.5168638965065897 -0.5259099803622601 -0.5259099803622601 -0.5259099803622601 -0.5020865633091585 -0.5020865633091585 -0.5020865633091585 0.5791742170708676 
0.5791742170708676 0.5791742170708676 0.5734913582833345 0.5734913582833345 0.5734913582833345 0.5614958436640586 0.5614958436640586 0.5614958436640586 0.5544182211175255 
0.5544182211175255 0.5544182211175255 -0.002233546753407475 -0.002233546753407475 -0.002233546753407475 -0.002282052958791583 -0.002282052958791583 -0.002282052958791583 -0.0158800980755097 
-0.0158800980755097 -0.0158800980755097 0.04429940841071117 0.04429940841071117 0.04429940841071117 0.03684740732670658 0.03684740732670658 0.03684740732670658 0.03341605835128632 
0.03341605835128632 0.03341605835128632 0.06335923670958243 0.06335923670958243 0.06335923670958243 0.07145048376442978 0.07145048376442978 0.07145048376442978 0.07932188346762312 
0.07932188346762312 0.07932188346762312 -0.719073775691343 -0.719073775691343 -0.719073775691343 -0.7242246659982229 -0.7242246659982229 -0.7242246659982229 -0.7294567124562948 
-0.7294567124562948 -0.7294567124562948 0.05571066552559859 0.05571066552559859 0.05571066552559859 0.06884233760285671 0.06884233760285671 0.06884233760285671 0.05955946418681568 
0.05955946418681568 0.05955946418681568 -0.04639778467612829 -0.04639778467612829 -0.04639778467612829 -0.03286079229798705 -0.03286079229798705 -0.03286079229798705 -0.03237056895265999 
-0.03237056895265999 -0.03237056895265999 -0.1579858044302967 -0.1579858044302967 -0.1579858044302967 -0.1702215594978691 -0.1702215594978691 -0.1702215594978691 -0.1774014530019725 
-0.1774014530019725 -0.1774014530019725 -0.1351636675014717 -0.1351636675014717 -0.1351636675014717 -0.126470717184801 -0.126470717184801 -0.126470717184801 -0.1206513769192433 
-0.1206513769192433 -0.1206513769192433 0.06969269937754827 0.06969269937754827 0.06969269937754827 0.07545548217522399 0.07545548217522399 0.07545548217522399 0.08802102605846919 
0.08802102605846919 0.08802102605846919 -0.4880245108794293 -0.4880245108794293 -0.4880245108794293 -0.4813354086140265 -0.4813354086140265 -0.4813354086140265 -0.04998100938732309 
-0.04998100938732309 -0.04998100938732309 -0.03331669531728217 -0.03331669531728217 -0.03331669531728217 -0.02316566404516965 -0.02316566404516965 -0.02316566404516965 -0.3822880129323175 
-0.3822880129323175 -0.3822880129323175 -0.3899411974860777 -0.3899411974860777 -0.3899411974860777 -0.3890714935576834 -0.3890714935576834 -0.3890714935576834 0.9274617057679899 
0.9274617057679899 0.9274617057679899 0.9301710233718119 0.9301710233718119 0.9301710233718119 0.9259382515224024 0.9259382515224024 0.9259382515224024 -0.2593000387322796 
-0.2593000387322796 -0.2593000387322796 -0.2567627774136186 -0.2567627774136186 -0.2567627774136186 -0.2790509263795364 -0.2790509263795364 -0.2790509263795364 -0.8528886400768024 
-0.8528886400768024 -0.8528886400768024 -0.8474536735815439 -0.8474536735815439 -0.8474536735815439 -0.8401962457244476 -0.8401962457244476 -0.8401962457244476 0.01071487253289665 
0.01071487253289665 0.01071487253289665 0.01030037152665659 0.01030037152665659 0.01030037152665659 0.008503053747280191 0.008503053747280191 0.008503053747280191 -0.4943991157773785 
-0.4943991157773785 -0.4943991157773785 -0.4876322249432004 -0.4876322249432004 -0.4876322249432004 -0.295002348920544 -0.295002348920544 -0.295002348920544 -0.2916639497028699 
-0.2916639497028699 -0.2916639497028699 -0.7300803723855656 -0.7300803723855656 -0.7300803723855656 -0.7286618981055559 -0.7286618981055559 -0.7286618981055559 -0.04916137616125875 
-0.04916137616125875 -0.04916137616125875 -0.05144511654592059 -0.05144511654592059 -0.05144511654592059 0.03427591515057762 0.03427591515057762 0.03427591515057762 0.02717552126305334 
0.02717552126305334 0.02717552126305334 -0.8843435764450734 -0.8843435764450734 -0.8843435764450734 -0.878989631598631 -0.878989631598631 -0.878989631598631 0.02722260149621647 
0.02722260149621647 0.02722260149621647 0.04204975244590133 0.04204975244590133 0.04204975244590133 -0.4034527580004064 -0.4034527580004064 -0.4034527580004064 -0.3927153110294449 
-0.3927153110294449 -0.3927153110294449 0.4460594558686137 0.4460594558686137 0.4460594558686137 0.4710362641948834 0.4710362641948834 0.4710362641948834 0.1456359510210802 
0.1456359510210802 0.1456359510210802 0.1572437528010205 0.1572437528010205 0.1572437528010205 0.2806086096881261 0.2806086096881261 0.2806086096881261 0.3049142719244344 
0.3049142719244344 0.3049142719244344 -0.3214688034518535 -0.3214688034518535 -0.3214688034518535 -0.3400195135067506 -0.3400195135067506 -0.3400195135067506 0.6782484784014824 
0.6782484784014824 0.6782484784014824 0.6716444456181507 0.6716444456181507 0.6716444456181507 0.03708394510898085 0.03708394510898085 0.03708394510898085 0.06177562466788998 
0.06177562466788998 0.06177562466788998 0.008053300963622209 0.008053300963622209 0.008053300963622209 0.008555480061428318 0.008555480061428318 0.008555480061428318 -0.3578451906069996 
-0.3578451906069996 -0.3578451906069996 -0.371721995065512 -0.371721995065512 -0.371721995065512 0.1028548586868527 0.1028548586868527 0.1028548586868527 0.1085503608893013 
0.1085503608893013 0.1085503608893013 0.4151955780312496 0.4151955780312496 0.4151955780312496 0.390669987233941 0.390669987233941 0.390669987233941 0.01668977039371183 
0.01668977039371183 0.01668977039371183 0.02235097477032682 0.02235097477032682 0.02235097477032682 -0.04287726662868844 -0.04287726662868844 -0.04287726662868844 -0.037065446593192 
-0.037065446593192 -0.037065446593192 0.005532472685759555 0.005532472685759555 0.005532472685759555 0.001297243625756715 0.001297243625756715 0.001297243625756715 0.7397479329896555 
0.7397479329896555 0.7397479329896555 0.7276331664473659 0.7276331664473659 0.7276331664473659 0.5231000541989709 0.5231000541989709 0.5231000541989709 0.5357407828212967 
0.5357407828212967 0.5357407828212967 0.04407973933896039 0.04407973933896039 0.04407973933896039 0.02209618742440158 0.02209618742440158 0.02209618742440158 0.09238170814466679 
0.09238170814466679 0.09238170814466679 0.1004499199423811 0.1004499199423811 0.1004499199423811 0.5188092854708802 0.5188092854708802 0.5188092854708802 0.5349888203789745 
0.5349888203789745 0.5349888203789745 -0.9527704919990239 -0.9527704919990239 -0.9527704919990239 -0.9479419575658148 -0.9479419575658148 -0.9479419575658148 0.5643976466040225 
0.5643976466040225 0.5643976466040225 0.570367875940225 0.570367875940225 0.570367875940225 0.3676116506244174 0.3676116506244174 0.3676116506244174 0.3809508835797648 
0.3809508835797648 0.3809508835797648 -0.4819531853785838 -0.4819531853785838 -0.4819531853785838 -0.469447237826826 -0.469447237826826 -0.469447237826826 0.4060839976785935 
0.4060839976785935 0.4060839976785935 0.4187687783296152 0.4187687783296152 0.4187687783296152 0.1684205969964024 0.1684205969964024 0.1684205969964024 0.1695655133629776 
0.1695655133629776 0.1695655133629776 0.63083490220241 0.63083490220241 0.63083490220241 0.6265161716041074 0.6265161716041074 0.6265161716041074 -0.4633564372133905 
-0.4633564372133905 -0.4633564372133905 -0.4330050598018403 -0.4330050598018403 -0.4330050598018403 -0.4961632200149174 -0.4961632200149174 -0.4961632200149174 -0.5043701880024385 
-0.5043701880024385 -0.5043701880024385 0.7508407996602728 0.7508407996602728 0.7508407996602728 0.7568988873086044 0.7568988873086044 0.7568988873086044 -0.9412815653064517 
-0.9412815653064517 -0.9412815653064517 -0.9383277155247326 -0.9383277155247326 -0.9383277155247326 0.5230734458368258 0.5230734458368258 0.5230734458368258 0.523389974953819 
0.523389974953819 0.523389974953819 -0.5176761486582504 -0.5176761486582504 -0.5176761486582504 -0.5181846674829989 -0.5181846674829989 -0.5181846674829989 0.2153168080232207 
0.2153168080232207 0.2153168080232207 0.2201839836630876 0.2201839836630876 0.2201839836630876 -0.5386775492758649 -0.5386775492758649 -0.5386775492758649 -0.5253893313660272 
-0.5253893313660272 -0.5253893313660272 -0.6188264408297808 -0.6188264408297808 -0.6188264408297808 -0.6328581660451706 -0.6328581660451706 -0.6328581660451706 0.2592679446854252 
0.2592679446854252 0.2592679446854252 0.2498134168547384 0.2498134168547384 0.2498134168547384 -0.9546137123708608 -0.9546137123708608 -0.9546137123708608 -0.9591235231320591 
-0.9591235231320591 -0.9591235231320591 -0.05019947355708977 -0.05019947355708977 -0.05019947355708977 -0.04797224430512843 -0.04797224430512843 -0.04797224430512843 0.1340911380990965 
0.1340911380990965 0.1340911380990965 0.1287644787972286 0.1287644787972286 0.1287644787972286 -0.9290627274941408 -0.9290627274941408 -0.9290627274941408 -0.9328692312391427 
-0.9328692312391427 -0.9328692312391427 -0.08573772071480835 -0.08573772071480835 -0.08573772071480835 -0.07998055191562389 -0.07998055191562389 -0.07998055191562389 0.7744498889160418 
0.7744498889160418 0.7744498889160418 0.759410962606252 0.759410962606252 0.759410962606252 -0.3503719016646861 -0.3503719016646861 -0.3503719016646861 -0.3434319558166583 
-0.3434319558166583 -0.3434319558166583 -0.5828475487687141 -0.5828475487687141 -0.5828475487687141 -0.5874140940284942 -0.5874140940284942 -0.5874140940284942 -0.274794298939232 
-0.274794298939232 -0.274794298939232 -0.2822080511939651 -0.2822080511939651 -0.2822080511939651 0.4945122474376936 0.4945122474376936 0.4945122474376936 0.5179309121450437 
0.5179309121450437 0.5179309121450437 0.7803236694258788 0.7803236694258788 0.7803236694258788 0.7729461854676384 0.7729461854676384 0.7729461854676384 -0.3177473323673294 
-0.3177473323673294 -0.3177473323673294 -0.3216804727757644 -0.3216804727757644 -0.3216804727757644 -0.077929701425279 -0.077929701425279 -0.077929701425279 -0.08471817047655823 
-0.08471817047655823 -0.08471817047655823 0.3882438527398123 0.3882438527398123 0.3882438527398123 0.3987892885168927 0.3987892885168927 0.3987892885168927 -0.06446069067885744 
-0.06446069067885744 -0.06446069067885744 -0.07145064736121849 -0.07145064736121849 -0.07145064736121849 -0.2857984709496523 -0.2857984709496523 -0.2857984709496523 -0.2925741129346691 
-0.2925741129346691 -0.2925741129346691 -0.178801481802186 -0.178801481802186 -0.178801481802186 -0.170312999503893 -0.170312999503893 -0.170312999503893 -0.3749216108927901 
-0.3749216108927901 -0.3749216108927901 -0.3862842065836656 -0.3862842065836656 -0.3862842065836656 -0.01280778148320696 -0.01280778148320696 -0.01280778148320696 -0.02011211762866042 
-0.02011211762866042 -0.02011211762866042 0.7289766181060223 0.7289766181060223 0.7289766181060223 0.7319924788639504 0.7319924788639504 0.7319924788639504 -0.03372311556028029 
-0.03372311556028029 -0.03372311556028029 -0.03738046348555539 -0.03738046348555539 -0.03738046348555539 0.2255357828124653 0.2255357828124653 0.2255357828124653 0.2127625838034159 
0.2127625838034159 0.2127625838034159 -0.8353956454823181 -0.8353956454823181 -0.8353956454823181 -0.8216971003547417 -0.8216971003547417 -0.8216971003547417 -0.03809072087804916 
-0.03809072087804916 -0.03809072087804916 -0.04622486118394802 -0.04622486118394802 -0.04622486118394802 -0.03685407340748598 -0.03685407340748598 -0.03685407340748598 -0.05069957985338231 
-0.05069957985338231 -0.05069957985338231 0.2243063717306545 0.2243063717306545 0.2243063717306545 0.2322998227065288 0.2322998227065288 0.2322998227065288 -0.7594754310381819 
-0.7594754310381819 -0.7594754310381819 -0.7482223149781949 -0.7482223149781949 -0.7482223149781949 -0.7183898446749076 -0.7183898446749076 -0.7183898446749076 -0.7213003231909774 
-0.7213003231909774 -0.7213003231909774 -0.4702342982739243 -0.4702342982739243 -0.4702342982739243 -0.4592837968223203 -0.4592837968223203 -0.4592837968223203 0.3256906252496824 
0.3256906252496824 0.3256906252496824 0.3155235418816117 0.3155235418816117 0.3155235418816117 -0.6493530073538708 -0.6493530073538708 -0.6493530073538708 -0.6435171379059093 
-0.6435171379059093 -0.6435171379059093 0.1764185982567752 0.1764185982567752 0.1764185982567752 0.1660099094726185 0.1660099094726185 0.1660099094726185 0.3020046468531563 
0.3020046468531563 0.3020046468531563 0.2925882584712045 0.2925882584712045 0.2925882584712045 0.09468365036372883 0.09468365036372883 0.09468365036372883 0.09483283035793894 
0.09483283035793894 0.09483283035793894 -0.06249360939394297 -0.06249360939394297 -0.06249360939394297 -0.05399333463478426 -0.05399333463478426 -0.05399333463478426 -0.649957134244016 
-0.649957134244016 -0.649957134244016 -0.6359420540226521 -0.6359420540226521 -0.6359420540226521 -0.2248617074494285 -0.2248617074494285 -0.2248617074494285 -0.2144685991658057 
-0.2144685991658057 -0.2144685991658057 0.4736507016012154 0.4736507016012154 0.4736507016012154 0.4714158939283675 0.4714158939283675 0.4714158939283675 0.5165252836682412 
0.5165252836682412 0.5165252836682412 0.5188141589422026 0.5188141589422026 0.5188141589422026 -0.6226665699538276 -0.6226665699538276 -0.6226665699538276 -0.6124665403049665 
-0.6124665403049665 -0.6124665403049665 0.2614446327484457 0.2614446327484457 0.2614446327484457 0.2286990770337306 0.2286990770337306 0.2286990770337306 0.1913109136443506 
0.1913109136443506 0.1913109136443506 0.2106863060156181 0.2106863060156181 0.2106863060156181 0.0005129575655772249 0.0005129575655772249 0.0005129575655772249 -0.0005930195537250752 
-0.0005930195537250752 -0.0005930195537250752 -0.9470926379144773 -0.9470926379144773 -0.9470926379144773 -0.9455747845192999 -0.9455747845192999 -0.9455747845192999 0.1432614875455545 
0.1432614875455545 0.1432614875455545 0.1538692596789417 0.1538692596789417 0.1538692596789417 -0.6840834609036708 -0.6840834609036708 -0.6840834609036708 -0.681632585383102 
-0.681632585383102 -0.681632585383102 -0.08775745970172391 -0.08775745970172391 -0.08775745970172391 -0.09762101650797769 -0.09762101650797769 -0.09762101650797769 -0.2111436044104912 
-0.2111436044104912 -0.2111436044104912 -0.2232593004379426 -0.2232593004379426 -0.2232593004379426 0.1125612688793847 0.1125612688793847 0.1125612688793847 0.1143131256250252 
0.1143131256250252 0.1143131256250252 -0.1971423666877604 -0.1971423666877604 -0.1971423666877604 -0.1813501758880868 -0.1813501758880868 -0.1813501758880868 0.1210598238031895 
0.1210598238031895 0.1210598238031895 0.1316102945331147 0.1316102945331147 0.1316102945331147 0.5667896221159808 0.5667896221159808 0.5667896221159808 0.5779591080781967 
0.5779591080781967 0.5779591080781967 -0.1128787886156529 -0.1128787886156529 -0.1128787886156529 -0.1032726094978667 -0.1032726094978667 -0.1032726094978667 0.09162448986098187 