Title = Triangle150
FileType = Solution
Variables = q
Zone T = Triangle150
ZoneType = FETriangle
Nodes = 212082
Elements = 70694
DataPacking = Block
StrandID = 20
SolutionTime = 1.9
0.5765558137888722 0.5765558137888722 0.5765558137888722 0.5805055429186765 0.5805055429186765 0.5805055429186765 0.5658789549941745 0.5658789549941745 0.5658789549941745 -0.7386602471974971 
-0.7386602471974971 -0.7386602471974971 -0.7447406817897282 -0.7447406817897282 -0.7447406817897282 -0.7506463511020953 -0.7506463511020953 -0.7506463511020953 -0.03133315135135707 
-0.03133315135135707 -0.03133315135135707 -0.03848654671728653 -0.03848654671728653 -0.03848654671728653 -0.04428557748980977 -0.04428557748980977 -0.04428557748980977 0.153307372705436 
0.153307372705436 0.153307372705436 0.1439111767524963 0.1439111767524963 0.1439111767524963 0.1279094810209565 0.1279094810209565 0.1279094810209565 -0.5890539231579468 
-0.5890539231579468 -0.5890539231579468 -0.5788174674095403 -0.5788174674095403 -0.5788174674095403 -0.5852494454149377 -0.5852494454149377 -0.5852494454149377 0.09093043998897951 
0.09093043998897951 0.09093043998897951 0.1018982954843952 0.1018982954843952 0.1018982954843952 0.1088106478310858 0.1088106478310858 0.1088106478310858 0.6462598988183303 
0.6462598988183303 0.6462598988183303 0.6575444882757246 0.6575444882757246 0.6575444882757246 -0.1119145766328442 -0.1119145766328442 -0.1119145766328442 -0.1160780434373092 
-0.1160780434373092 -0.1160780434373092 0.7367494345336266 0.7367494345336266 0.7367494345336266 0.7470394676177514 0.7470394676177514 0.7470394676177514 0.8380780381180784 
0.8380780381180784 0.8380780381180784 0.836882636676199 0.836882636676199 0.836882636676199 -0.5530112382405519 -0.5530112382405519 -0.5530112382405519 -0.5552445115787334 
-0.5552445115787334 -0.5552445115787334 -0.3154328014536119 -0.3154328014536119 -0.3154328014536119 -0.3394416187708139 -0.3394416187708139 -0.3394416187708139 -0.6991761899893235 
-0.6991761899893235 -0.6991761899893235 -0.6922652347344174 -0.6922652347344174 -0.6922652347344174 -0.1338958730940452 -0.1338958730940452 -0.1338958730940452 -0.1321641767893953 
-0.1321641767893953 -0.1321641767893953 0.3342013934858177 0.3342013934858177 0.3342013934858177 0.3219100815703689 0.3219100815703689 0.3219100815703689 -0.06491492546699999 
-0.06491492546699999 -0.06491492546699999 -0.0594407072117055 -0.0594407072117055 -0.0594407072117055 0.5893883496256771 0.5893883496256771 0.5893883496256771 0.5936329546255776 
0.5936329546255776 0.5936329546255776 0.2861169112412489 0.2861169112412489 0.2861169112412489 0.2769790253590809 0.2769790253590809 0.2769790253590809 0.5466942702639506 
0.5466942702639506 0.5466942702639506 0.5402201436504527 0.5402201436504527 0.5402201436504527 0.1841402409687807 0.1841402409687807 0.1841402409687807 0.1873267033191369 
0.1873267033191369 0.1873267033191369 -0.8076977195075661 -0.8076977195075661 -0.8076977195075661 -0.812108102206331 -0.812108102206331 -0.812108102206331 0.8146265816828571 
0.8146265816828571 0.8146265816828571 0.8080396470132292 0.8080396470132292 0.8080396470132292 -0.01832227439973759 -0.01832227439973759 -0.01832227439973759 -0.01276605249910639 
-0.01276605249910639 -0.01276605249910639 0.4376785348830004 0.4376785348830004 0.4376785348830004 0.4339480310231365 0.4339480310231365 0.4339480310231365 0.2609985558681269 
0.2609985558681269 0.2609985558681269 0.2656859046919268 0.2656859046919268 0.2656859046919268 -0.01147987318290298 -0.01147987318290298 -0.01147987318290298 -0.01743586332775112 
-0.01743586332775112 -0.01743586332775112 0.6174095788533749 0.6174095788533749 0.6174095788533749 0.6428523666756871 0.6428523666756871 0.6428523666756871 -0.4965224759026588 
-0.4965224759026588 -0.4965224759026588 -0.501237737414211 -0.501237737414211 -0.501237737414211 -0.5999146500144588 -0.5999146500144588 -0.5999146500144588 -0.5906326629593959 
-0.5906326629593959 -0.5906326629593959 0.4077220032952085 0.4077220032952085 0.4077220032952085 0.4049198467520734 0.4049198467520734 0.4049198467520734 0.105229050870806 
0.105229050870806 0.105229050870806 0.1210497259275103 0.1210497259275103 0.1210497259275103 -0.07929954030129821 -0.07929954030129821 -0.07929954030129821 -0.06969644428141487 
-0.06969644428141487 -0.06969644428141487 -0.6697339945573508 -0.6697339945573508 -0.6697339945573508 -0.6627551147492567 -0.6627551147492567 -0.6627551147492567 0.3722981844215997 
0.3722981844215997 0.3722981844215997 0.3635581746796099 0.3635581746796099 0.3635581746796099 0.03292550072328511 0.03292550072328511 0.03292550072328511 0.03089967695089637 
0.03089967695089637 0.03089967695089637 -0.1004677475607328 -0.1004677475607328 -0.1004677475607328 -0.09595243855340541 -0.09595243855340541 -0.09595243855340541 -0.8148282839075263 
-0.8148282839075263 -0.8148282839075263 -0.8134771553819187 -0.8134771553819187 -0.8134771553819187 -0.253325497722255 -0.253325497722255 -0.253325497722255 -0.2479132820914921 
-0.2479132820914921 -0.2479132820914921 -0.6987448611315054 -0.6987448611315054 -0.6987448611315054 -0.7122167583873138 -0.7122167583873138 -0.7122167583873138 0.6634539682383447 
0.6634539682383447 0.6634539682383447 0.662588866841693 0.662588866841693 0.662588866841693 -0.3262849240143361 -0.3262849240143361 -0.3262849240143361 -0.3285044813828015 
-0.3285044813828015 -0.3285044813828015 -0.258558558621345 -0.258558558621345 -0.258558558621345 -0.25885510476015 -0.25885510476015 -0.25885510476015 -0.1429530194244369 
-0.1429530194244369 -0.1429530194244369 -0.1483895136561546 -0.1483895136561546 -0.1483895136561546 0.5663300149784769 0.5663300149784769 0.5663300149784769 0.2848936695203103 
0.2848936695203103 0.2848936695203103 0.2745894654655719 0.2745894654655719 0.2745894654655719 0.5361368870633697 0.5361368870633697 0.5361368870633697 0.5435137112238013 
0.5435137112238013 0.5435137112238013 -0.6557941614347189 -0.6557941614347189 -0.6557941614347189 -0.6603624224170258 -0.6603624224170258 -0.6603624224170258 -0.08055506359114556 
-0.08055506359114556 -0.08055506359114556 -0.0774854471194077 -0.0774854471194077 -0.0774854471194077 -0.4930797794511564 -0.4930797794511564 -0.4930797794511564 -0.5033413546916313 
-0.5033413546916313 -0.5033413546916313 0.5805135828829129 0.5805135828829129 0.5805135828829129 -0.7310188671362443 -0.7310188671362443 -0.7310188671362443 0.04351729587895869 
0.04351729587895869 0.04351729587895869 0.1313504233136208 0.1313504233136208 0.1313504233136208 -0.6566082426803799 -0.6566082426803799 -0.6566082426803799 -0.839959330119648 
-0.839959330119648 -0.839959330119648 0.3646641967759509 0.3646641967759509 0.3646641967759509 0.01850746517442764 0.01850746517442764 0.01850746517442764 0.7614360398946605 
0.7614360398946605 0.7614360398946605 -0.6730153880833015 -0.6730153880833015 -0.6730153880833015 0.3038782247872885 0.3038782247872885 0.3038782247872885 -0.06326003037357525 
-0.06326003037357525 -0.06326003037357525 -0.08917951229088462 -0.08917951229088462 -0.08917951229088462 -0.04612251476607176 -0.04612251476607176 -0.04612251476607176 -0.04891606772574678 
-0.04891606772574678 -0.04891606772574678 0.2488775673692185 0.2488775673692185 0.2488775673692185 0.2586496951855382 0.2586496951855382 0.2586496951855382 0.2297579348085779 
0.2297579348085779 0.2297579348085779 0.2225455871379216 0.2225455871379216 0.2225455871379216 -0.09324122199813212 -0.09324122199813212 -0.09324122199813212 -0.07906411016941456 
-0.07906411016941456 -0.07906411016941456 0.8177077676103753 0.8177077676103753 0.8177077676103753 0.8120463477572601 0.8120463477572601 0.8120463477572601 0.1995983305318297 
0.1995983305318297 0.1995983305318297 0.201499237810049 0.201499237810049 0.201499237810049 -0.5762011871854722 -0.5762011871854722 -0.5762011871854722 -0.5550652802084279 
-0.5550652802084279 -0.5550652802084279 -0.1327648623000107 -0.1327648623000107 -0.1327648623000107 -0.1518168030062598 -0.1518168030062598 -0.1518168030062598 0.1638636322005016 
0.1638636322005016 0.1638636322005016 0.1851577180349963 0.1851577180349963 0.1851577180349963 0.4898353535191541 0.4898353535191541 0.4898353535191541 0.500844290236206 
0.500844290236206 0.500844290236206 0.3371949167447259 0.3371949167447259 0.3371949167447259 0.3048791013563132 0.3048791013563132 0.3048791013563132 0.09034614971562219 
0.09034614971562219 0.09034614971562219 0.06734528152340109 0.06734528152340109 0.06734528152340109 0.04979447874869068 0.04979447874869068 0.04979447874869068 0.06816573930043157 
0.06816573930043157 0.06816573930043157 -0.7192710286637911 -0.7192710286637911 -0.7192710286637911 -0.7360787054400136 -0.7360787054400136 -0.7360787054400136 0.2448394585613314 
0.2448394585613314 0.2448394585613314 0.2268700484775667 0.2268700484775667 0.2268700484775667 0.04857990999404013 0.04857990999404013 0.04857990999404013 0.0598676732213239 
0.0598676732213239 0.0598676732213239 0.04403990515406261 0.04403990515406261 0.04403990515406261 0.04653643390901381 0.04653643390901381 0.04653643390901381 -0.1015128861586747 
-0.1015128861586747 -0.1015128861586747 -0.08528940918084643 -0.08528940918084643 -0.08528940918084643 -0.5860679343683864 -0.5860679343683864 -0.5860679343683864 -0.5808116652925572 
-0.5808116652925572 -0.5808116652925572 -0.1950965428465608 -0.1950965428465608 -0.1950965428465608 -0.1914469292462504 -0.1914469292462504 -0.1914469292462504 -0.1175380842151485 
-0.1175380842151485 -0.1175380842151485 -0.1126874383432741 -0.1126874383432741 -0.1126874383432741 -0.3431624158292018 -0.3431624158292018 -0.3431624158292018 -0.3207726720677821 
-0.3207726720677821 -0.3207726720677821 0.4736997823038771 0.4736997823038771 0.4736997823038771 0.4508964557499882 0.4508964557499882 0.4508964557499882 0.8245731578508917 
0.8245731578508917 0.8245731578508917 0.81616649457948 0.81616649457948 0.81616649457948 -0.5676700257304335 -0.5676700257304335 -0.5676700257304335 -0.5817110027275103 
-0.5817110027275103 -0.5817110027275103 0.5604820798493058 0.5604820798493058 0.5604820798493058 0.5842808932831804 0.5842808932831804 0.5842808932831804 0.268795607552556 
0.268795607552556 0.268795607552556 0.2662520990760749 0.2662520990760749 0.2662520990760749 0.5142599691934078 0.5142599691934078 0.5142599691934078 0.4952985485800997 
0.4952985485800997 0.4952985485800997 0.1502833676771327 0.1502833676771327 0.1502833676771327 0.1504038296569924 0.1504038296569924 0.1504038296569924 -0.4802882604577581 
-0.4802882604577581 -0.4802882604577581 -0.4634982217435445 -0.4634982217435445 -0.4634982217435445 0.6406229563431219 0.6406229563431219 0.6406229563431219 0.6203073728484036 
0.6203073728484036 0.6203073728484036 0.7758367303357391 0.7758367303357391 0.7758367303357391 0.7782239372045591 0.7782239372045591 0.7782239372045591 0.04073001484196179 
0.04073001484196179 0.04073001484196179 0.04643796035421306 0.04643796035421306 0.04643796035421306 0.01339217915748137 0.01339217915748137 0.01339217915748137 0.01101388118512394 
0.01101388118512394 0.01101388118512394 -0.4570193832222986 -0.4570193832222986 -0.4570193832222986 -0.4423190638223287 -0.4423190638223287 -0.4423190638223287 0.05432831412447706 
0.05432831412447706 0.05432831412447706 0.06392971559409699 0.06392971559409699 0.06392971559409699 0.435262601176819 0.435262601176819 0.435262601176819 0.4436174766046392 
0.4436174766046392 0.4436174766046392 -0.2157174455631742 -0.2157174455631742 -0.2157174455631742 -0.2207344779250633 -0.2207344779250633 -0.2207344779250633 0.4285264158176583 
0.4285264158176583 0.4285264158176583 0.4416913623906949 0.4416913623906949 0.4416913623906949 -0.1853652636756817 -0.1853652636756817 -0.1853652636756817 -0.1934937671695831 
-0.1934937671695831 -0.1934937671695831 0.2449409654456637 0.2449409654456637 0.2449409654456637 0.2305365934742131 0.2305365934742131 0.2305365934742131 -0.820180658151641 
-0.820180658151641 -0.820180658151641 -0.8138189506592823 -0.8138189506592823 -0.8138189506592823 -0.3561437149808442 -0.3561437149808442 -0.3561437149808442 -0.3412252899804932 
-0.3412252899804932 -0.3412252899804932 0.1824676373053209 0.1824676373053209 0.1824676373053209 0.2013876626580798 0.2013876626580798 0.2013876626580798 -0.3153163205003461 
-0.3153163205003461 -0.3153163205003461 -0.3402364293172743 -0.3402364293172743 -0.3402364293172743 0.5689456484719312 0.5689456484719312 0.5689456484719312 0.5619098823627952 
0.5619098823627952 0.5619098823627952 0.3536134095394839 0.3536134095394839 0.3536134095394839 0.3437053357151679 0.3437053357151679 0.3437053357151679 -0.7238799356482991 
-0.7238799356482991 -0.7238799356482991 -0.7141658799530759 -0.7141658799530759 -0.7141658799530759 0.485966998146024 0.485966998146024 0.485966998146024 0.4803040463761333 
0.4803040463761333 0.4803040463761333 0.6059110162993251 0.6059110162993251 0.6059110162993251 0.6093996503707306 0.6093996503707306 0.6093996503707306 0.1227310305332451 
0.1227310305332451 0.1227310305332451 0.1013152508991332 0.1013152508991332 0.1013152508991332 0.01552803249561903 0.01552803249561903 0.01552803249561903 0.03030567024953482 
0.03030567024953482 0.03030567024953482 -0.3714161907213623 -0.3714161907213623 -0.3714161907213623 -0.39510378471653 -0.39510378471653 -0.39510378471653 0.4865423036617172 
0.4865423036617172 0.4865423036617172 0.4909337341639974 0.4909337341639974 0.4909337341639974 -0.7895289480480421 -0.7895289480480421 -0.7895289480480421 -0.7874814467295286 
-0.7874814467295286 -0.7874814467295286 -0.3468526487776054 -0.3468526487776054 -0.3468526487776054 -0.3574189495990863 -0.3574189495990863 -0.3574189495990863 0.5363107552542348 
0.5363107552542348 0.5363107552542348 0.5595008867952744 0.5595008867952744 0.5595008867952744 0.3992666240811523 0.3992666240811523 0.3992666240811523 0.4146843295060805 
0.4146843295060805 0.4146843295060805 -0.4173335020203255 -0.4173335020203255 -0.4173335020203255 -0.4428051248889554 -0.4428051248889554 -0.4428051248889554 0.5738520306244472 
0.5738520306244472 0.5738520306244472 0.5933503357338566 0.5933503357338566 0.5933503357338566 0.3339432071967094 0.3339432071967094 0.3339432071967094 0.2827489051884757 
0.2827489051884757 0.2827489051884757 -0.2444137196412655 -0.2444137196412655 -0.2444137196412655 -0.2316952325539186 -0.2316952325539186 -0.2316952325539186 -0.02565668079813914 
-0.02565668079813914 -0.02565668079813914 -0.01229503609373618 -0.01229503609373618 -0.01229503609373618 -0.5592922701166529 -0.5592922701166529 -0.5592922701166529 -0.5381571030153267 
-0.5381571030153267 -0.5381571030153267 0.6132360582411986 0.6132360582411986 0.6132360582411986 0.5938971604148879 0.5938971604148879 0.5938971604148879 -0.3816052607227908 
-0.3816052607227908 -0.3816052607227908 -0.3779259206344615 -0.3779259206344615 -0.3779259206344615 0.1906406609330863 0.1906406609330863 0.1906406609330863 0.1984939872280863 
0.1984939872280863 0.1984939872280863 0.2031342539421112 0.2031342539421112 0.2031342539421112 0.173058385607052 0.173058385607052 0.173058385607052 0.3912481338902552 
0.3912481338902552 0.3912481338902552 0.400896486511877 0.400896486511877 0.400896486511877 0.4114988427569379 0.4114988427569379 0.4114988427569379 0.02169121959612105 
0.02169121959612105 0.02169121959612105 0.01701217035018857 0.01701217035018857 0.01701217035018857 0.02408400132773617 0.02408400132773617 0.02408400132773617 0.0248228045126386 
0.0248228045126386 0.0248228045126386 0.253553736510603 0.253553736510603 0.253553736510603 0.2453891312924446 0.2453891312924446 0.2453891312924446 0.2345791036417723 
0.2345791036417723 0.2345791036417723 0.4348988512701078 0.4348988512701078 0.4348988512701078 0.447852993261765 0.447852993261765 0.447852993261765 0.4567787524113801 
0.4567787524113801 0.4567787524113801 0.4199038143888322 0.4199038143888322 0.4199038143888322 0.405022181259666 0.405022181259666 0.405022181259666 0.393800869929607 
0.393800869929607 0.393800869929607 -0.3276637896323779 -0.3276637896323779 -0.3276637896323779 -0.3218218348610088 -0.3218218348610088 -0.3218218348610088 -0.3157219336609933 
-0.3157219336609933 -0.3157219336609933 -0.4103466439972959 -0.4103466439972959 -0.4103466439972959 -0.4206595086254744 -0.4206595086254744 -0.4206595086254744 -0.4259609121064479 
-0.4259609121064479 -0.4259609121064479 0.8275150756735999 0.8275150756735999 0.8275150756735999 0.8243419692700265 0.8243419692700265 0.8243419692700265 0.8251202636745276 
0.8251202636745276 0.8251202636745276 -0.3617176934848314 -0.3617176934848314 -0.3617176934848314 -0.3902148564073449 -0.3902148564073449 -0.3902148564073449 -0.3908013444152921 
-0.3908013444152921 -0.3908013444152921 -0.0392036004873177 -0.0392036004873177 -0.0392036004873177 -0.03876507717136861 -0.03876507717136861 -0.03876507717136861 -0.02338047144778474 
-0.02338047144778474 -0.02338047144778474 0.03292295266426382 0.03292295266426382 0.03292295266426382 0.04920312164872601 0.04920312164872601 0.04920312164872601 0.04329358411622564 
0.04329358411622564 0.04329358411622564 0.4067971629763847 0.4067971629763847 0.4067971629763847 0.399380253539283 0.399380253539283 0.399380253539283 0.1716048642896777 
0.1716048642896777 0.1716048642896777 0.1885806968718314 0.1885806968718314 0.1885806968718314 0.1910665442808779 0.1910665442808779 0.1910665442808779 -0.6058556719038447 
-0.6058556719038447 -0.6058556719038447 -0.6016456373679171 -0.6016456373679171 -0.6016456373679171 -0.6053101338487755 -0.6053101338487755 -0.6053101338487755 -0.1674923139531884 
-0.1674923139531884 -0.1674923139531884 -0.1576167086224013 -0.1576167086224013 -0.1576167086224013 -0.1433783234363799 -0.1433783234363799 -0.1433783234363799 0.8495440266458607 
0.8495440266458607 0.8495440266458607 0.8477174278254809 0.8477174278254809 0.8477174278254809 0.8461813497840243 0.8461813497840243 0.8461813497840243 -0.08787014655647647 
-0.08787014655647647 -0.08787014655647647 -0.09246525247823192 -0.09246525247823192 -0.09246525247823192 -0.09844743450317668 -0.09844743450317668 -0.09844743450317668 0.4231754305787706 
0.4231754305787706 0.4231754305787706 0.4178832471188949 0.4178832471188949 0.4178832471188949 0.4103583910192746 0.4103583910192746 0.4103583910192746 0.3958671387612254 
0.3958671387612254 0.3958671387612254 0.4098400048179638 0.4098400048179638 0.4098400048179638 -0.2700415841425722 -0.2700415841425722 -0.2700415841425722 -0.2819877139731809 
-0.2819877139731809 -0.2819877139731809 0.6309673572912253 0.6309673572912253 0.6309673572912253 0.6268451786773053 0.6268451786773053 0.6268451786773053 0.02795338803083771 
0.02795338803083771 0.02795338803083771 0.03843587281253259 0.03843587281253259 0.03843587281253259 0.2518910485228171 0.2518910485228171 0.2518910485228171 0.2394641566445053 
0.2394641566445053 0.2394641566445053 0.4216883623723143 0.4216883623723143 0.4216883623723143 0.422915746983448 0.422915746983448 0.422915746983448 0.4701788680833607 
0.4701788680833607 0.4701788680833607 0.4477072810937156 0.4477072810937156 0.4477072810937156 -0.4563398543499309 -0.4563398543499309 -0.4563398543499309 -0.4594842873415719 
-0.4594842873415719 -0.4594842873415719 -0.8035828339823379 -0.8035828339823379 -0.8035828339823379 -0.7945424823672484 -0.7945424823672484 -0.7945424823672484 0.07806811262518962 
0.07806811262518962 0.07806811262518962 0.07589968134651333 0.07589968134651333 0.07589968134651333 -0.2191210316948494 -0.2191210316948494 -0.2191210316948494 -0.2190234452705159 
-0.2190234452705159 -0.2190234452705159 -0.1828461494799259 -0.1828461494799259 -0.1828461494799259 -0.1682617502010573 -0.1682617502010573 -0.1682617502010573 0.05197422655255303 
0.05197422655255303 0.05197422655255303 0.05061820170538635 0.05061820170538635 0.05061820170538635 0.4082285796546837 0.4082285796546837 0.4082285796546837 0.3929200788172029 
0.3929200788172029 0.3929200788172029 0.4821401332633247 0.4821401332633247 0.4821401332633247 0.4783382492473874 0.4783382492473874 0.4783382492473874 0.8143160141454497 
0.8143160141454497 0.8143160141454497 0.8080231034275785 0.8080231034275785 0.8080231034275785 -0.8297980273041157 -0.8297980273041157 -0.8297980273041157 -0.8264698945424707 
-0.8264698945424707 -0.8264698945424707 0.3263746831121407 0.3263746831121407 0.3263746831121407 0.3307274151162083 0.3307274151162083 0.3307274151162083 0.6279886251166351 
0.6279886251166351 0.6279886251166351 0.619292281576069 0.619292281576069 0.619292281576069 -0.7782104217821343 -0.7782104217821343 -0.7782104217821343 -0.7776987425001286 
-0.7776987425001286 -0.7776987425001286 -0.5304953051051955 -0.5304953051051955 -0.5304953051051955 -0.5210850385844925 -0.5210850385844925 -0.5210850385844925 -0.4172838451761877 
-0.4172838451761877 -0.4172838451761877 -0.4172407379845764 -0.4172407379845764 -0.4172407379845764 0.01470998883010542 0.01470998883010542 0.01470998883010542 0.01356016413126514 
0.01356016413126514 0.01356016413126514 -0.8271006020645846 -0.8271006020645846 -0.8271006020645846 -0.820050800484869 -0.820050800484869 -0.820050800484869 -0.8019399468428868 
-0.8019399468428868 -0.8019399468428868 -0.8108939007896449 -0.8108939007896449 -0.8108939007896449 -0.08253189297130903 -0.08253189297130903 -0.08253189297130903 -0.0899995960505707 
-0.0899995960505707 -0.0899995960505707 0.1339387487441515 0.1339387487441515 0.1339387487441515 0.1145354579152163 0.1145354579152163 0.1145354579152163 0.4731953648327422 
0.4731953648327422 0.4731953648327422 0.4673925368292166 0.4673925368292166 0.4673925368292166 0.07842739605717489 0.07842739605717489 0.07842739605717489 0.07425292280049622 
0.07425292280049622 0.07425292280049622 0.1264464103687321 0.1264464103687321 0.1264464103687321 0.1208557135747838 0.1208557135747838 0.1208557135747838 -0.2719558045970333 
-0.2719558045970333 -0.2719558045970333 -0.2500520900173303 -0.2500520900173303 -0.2500520900173303 -0.830059896224477 -0.830059896224477 -0.830059896224477 -0.8274749226362907 
-0.8274749226362907 -0.8274749226362907 0.04762715555528824 0.04762715555528824 0.04762715555528824 0.04624395124018899 0.04624395124018899 0.04624395124018899 0.4553119569870201 
0.4553119569870201 0.4553119569870201 0.4707170532464562 0.4707170532464562 0.4707170532464562 -0.04992421118584037 -0.04992421118584037 -0.04992421118584037 -0.05364773255574735 
-0.05364773255574735 -0.05364773255574735 -0.5367603171902515 -0.5367603171902515 -0.5367603171902515 -0.5417027746297263 -0.5417027746297263 -0.5417027746297263 0.07677359713458175 
0.07677359713458175 0.07677359713458175 0.08284475863102439 0.08284475863102439 0.08284475863102439 -0.6287031826048766 -0.6287031826048766 -0.6287031826048766 -0.6476297606667683 
-0.6476297606667683 -0.6476297606667683 -0.4923685315561938 -0.4923685315561938 -0.4923685315561938 -0.4854027688368555 -0.4854027688368555 -0.4854027688368555 0.1449758602190477 
0.1449758602190477 0.1449758602190477 0.12141963536565 0.12141963536565 0.12141963536565 -0.4980880009937481 -0.4980880009937481 -0.4980880009937481 -0.5095146707238436 
-0.5095146707238436 -0.5095146707238436 0.5101837843959693 0.5101837843959693 0.5101837843959693 0.5074990029223765 0.5074990029223765 0.5074990029223765 0.2254122936818204 
0.2254122936818204 0.2254122936818204 0.2339051535385644 0.2339051535385644 0.2339051535385644 0.2799466789140016 0.2799466789140016 0.2799466789140016 0.2718746952945874 
0.2718746952945874 0.2718746952945874 -0.3727948211278664 -0.3727948211278664 -0.3727948211278664 -0.363260073972145 -0.363260073972145 -0.363260073972145 -0.8251922986225704 
-0.8251922986225704 -0.8251922986225704 -0.8216643241025876 -0.8216643241025876 -0.8216643241025876 0.140045341723289 0.140045341723289 0.140045341723289 0.1436104396764871 
0.1436104396764871 0.1436104396764871 -0.3132608519714374 -0.3132608519714374 -0.3132608519714374 -0.303563225500342 -0.303563225500342 -0.303563225500342 -0.4072745659092916 
-0.4072745659092916 -0.4072745659092916 -0.3980218959127227 -0.3980218959127227 -0.3980218959127227 0.4798413775953972 0.4798413775953972 0.4798413775953972 0.471221243335189 
0.471221243335189 0.471221243335189 0.09461598683832056 0.09461598683832056 0.09461598683832056 0.08228039893132286 0.08228039893132286 0.08228039893132286 -0.08334142662270733 
-0.08334142662270733 -0.08334142662270733 -0.09626768978638264 -0.09626768978638264 -0.09626768978638264 0.01658950765866487 0.01658950765866487 0.01658950765866487 -0.001836923505098727 
-0.001836923505098727 -0.001836923505098727 0.03878934640072165 0.03878934640072165 0.03878934640072165 0.0410875235421918 0.0410875235421918 0.0410875235421918 0.01513700075531554 
0.01513700075531554 0.01513700075531554 0.01269674396211811 0.01269674396211811 0.01269674396211811 -0.7858849738355099 -0.7858849738355099 -0.7858849738355099 -0.7835748599527814 
-0.7835748599527814 -0.7835748599527814 0.1004614653247278 0.1004614653247278 0.1004614653247278 0.09440742977743151 0.09440742977743151 0.09440742977743151 -0.7925519188449393 
-0.7925519188449393 -0.7925519188449393 -0.7899241510180889 -0.7899241510180889 -0.7899241510180889 -0.6395562977652807 -0.6395562977652807 -0.6395562977652807 -0.6373873468394256 
-0.6373873468394256 -0.6373873468394256 -0.1856465538419229 -0.1856465538419229 -0.1856465538419229 -0.1715497650982261 -0.1715497650982261 -0.1715497650982261 0.1087275826591363 
0.1087275826591363 0.1087275826591363 0.1134123062980006 0.1134123062980006 0.1134123062980006 0.5098226190970939 0.5098226190970939 0.5098226190970939 0.5188612077171297 
0.5188612077171297 0.5188612077171297 -0.6476695399574228 -0.6476695399574228 -0.6476695399574228 -0.6498907436074424 -0.6498907436074424 -0.6498907436074424 -0.3642007908227461 
-0.3642007908227461 -0.3642007908227461 -0.3511694436536566 -0.3511694436536566 -0.3511694436536566 -0.1901204036910101 -0.1901204036910101 -0.1901204036910101 -0.1846055510312787 
-0.1846055510312787 -0.1846055510312787 0.4717814453292563 0.4717814453292563 0.4717814453292563 0.4868908996582007 0.4868908996582007 0.4868908996582007 0.2902124679682488 
0.2902124679682488 0.2902124679682488 0.2755441727080368 0.2755441727080368 0.2755441727080368 -0.3874572050622581 -0.3874572050622581 -0.3874572050622581 -0.3788198184967946 
-0.3788198184967946 -0.3788198184967946 -0.07256968324182329 -0.07256968324182329 -0.07256968324182329 -0.06784300506186874 -0.06784300506186874 -0.06784300506186874 -0.1010762097506333 
-0.1010762097506333 -0.1010762097506333 -0.09461796659528296 -0.09461796659528296 -0.09461796659528296 0.6333652151716204 0.6333652151716204 0.6333652151716204 0.6359444345596338 
0.6359444345596338 0.6359444345596338 -0.07765213065129646 -0.07765213065129646 -0.07765213065129646 -0.08498422098905889 -0.08498422098905889 -0.08498422098905889 0.07449236997507237 
0.07449236997507237 0.07449236997507237 0.09057983486890153 0.09057983486890153 0.09057983486890153 -0.3958021586724234 -0.3958021586724234 -0.3958021586724234 -0.403190774713455 
-0.403190774713455 -0.403190774713455 -0.0886943535698011 -0.0886943535698011 -0.0886943535698011 -0.1006671270409158 -0.1006671270409158 -0.1006671270409158 0.366825128441275 
0.366825128441275 0.366825128441275 0.3681046638933146 0.3681046638933146 0.3681046638933146 0.4737856351012531 0.4737856351012531 0.4737856351012531 0.4553730093664062 
0.4553730093664062 0.4553730093664062 -0.7661691753594956 -0.7661691753594956 -0.7661691753594956 -0.7667068461558292 -0.7667068461558292 -0.7667068461558292 0.3559279615087607 
0.3559279615087607 0.3559279615087607 0.3794088238234876 0.3794088238234876 0.3794088238234876 0.5446191563251993 0.5446191563251993 0.5446191563251993 0.5361294601187212 
0.5361294601187212 0.5361294601187212 -0.08815375959306966 -0.08815375959306966 -0.08815375959306966 -0.1108458632370659 -0.1108458632370659 -0.1108458632370659 0.4912665749081868 
0.4912665749081868 0.4912665749081868 0.4856183882555444 0.4856183882555444 0.4856183882555444 0.04443293579183835 0.04443293579183835 0.04443293579183835 0.03776810428704194 
0.03776810428704194 0.03776810428704194 -0.364289266202049 -0.364289266202049 -0.364289266202049 -0.3705351061627973 -0.3705351061627973 -0.3705351061627973 -0.8356759185459393 
-0.8356759185459393 -0.8356759185459393 -0.8400160033415638 -0.8400160033415638 -0.8400160033415638 0.8097039661707928 0.8097039661707928 0.8097039661707928 0.8073527678271617 
0.8073527678271617 0.8073527678271617 0.06346297887115389 0.06346297887115389 0.06346297887115389 0.06545286178945173 0.06545286178945173 0.06545286178945173 0.5649026839671238 
0.5649026839671238 0.5649026839671238 0.5732170539391089 0.5732170539391089 0.5732170539391089 -0.1425379669232235 -0.1425379669232235 -0.1425379669232235 -0.1374307426043789 
-0.1374307426043789 -0.1374307426043789 0.1693977661198552 0.1693977661198552 0.1693977661198552 0.1559087264613941 0.1559087264613941 0.1559087264613941 -0.2643816689103289 
-0.2643816689103289 -0.2643816689103289 -0.2726408236723019 -0.2726408236723019 -0.2726408236723019 0.3539053108884749 0.3539053108884749 0.3539053108884749 0.3289474703920052 
0.3289474703920052 0.3289474703920052 0.04591731201474854 0.04591731201474854 0.04591731201474854 0.04103797323325124 0.04103797323325124 0.04103797323325124 -0.723519203248429 
-0.723519203248429 -0.723519203248429 -0.7297357916238867 -0.7297357916238867 -0.7297357916238867 0.04654482381838127 0.04654482381838127 0.04654482381838127 0.04287278235739657 
0.04287278235739657 0.04287278235739657 -0.2133338129914803 -0.2133338129914803 -0.2133338129914803 -0.1997459085766516 -0.1997459085766516 -0.1997459085766516 -0.08897721249057879 
-0.08897721249057879 -0.08897721249057879 -0.09344239137222032 -0.09344239137222032 -0.09344239137222032 0.8323300161274925 0.8323300161274925 0.8323300161274925 0.8331979913003998 
0.8331979913003998 0.8331979913003998 -0.5005105638756553 -0.5005105638756553 -0.5005105638756553 -0.5072920128731871 -0.5072920128731871 -0.5072920128731871 0.7538374874709641 