Title = Result/Post/Linear_Advection_2D/Sine_Wave_2D/Quad10/
FileType = Solution
Variables = q
Zone T = Result/Post/Linear_Advection_2D/Sine_Wave_2D/Quad10/
ZoneType = FETriangle
Nodes = 400
Elements = 200
DataPacking = Block
StrandID = 1
SolutionTime = 0
0.09549150281252625 0.09549150281252625 0.09549150281252625 0.09549150281252625 0.25 0.25 0.25 0.25 0.3090169943749474 0.3090169943749474 
0.3090169943749474 0.3090169943749474 0.2500000000000002 0.2500000000000002 0.2500000000000002 0.2500000000000002 0.09549150281252644 0.09549150281252644 0.09549150281252644 
0.09549150281252644 -0.09549150281252637 -0.09549150281252637 -0.09549150281252637 -0.09549150281252637 -0.2499999999999999 -0.2499999999999999 -0.2499999999999999 -0.2499999999999999 
-0.3090169943749474 -0.3090169943749474 -0.3090169943749474 -0.3090169943749474 -0.2499999999999999 -0.2499999999999999 -0.2499999999999999 -0.2499999999999999 -0.09549150281252636 
-0.09549150281252636 -0.09549150281252636 -0.09549150281252636 0.2499999999999999 0.2499999999999999 0.2499999999999999 0.2499999999999999 0.6545084971874737 0.6545084971874737 
0.6545084971874737 0.6545084971874737 0.8090169943749475 0.8090169943749475 0.8090169943749475 0.8090169943749475 0.6545084971874739 0.6545084971874739 0.6545084971874739 
0.6545084971874739 0.2500000000000004 0.2500000000000004 0.2500000000000004 0.2500000000000004 -0.2500000000000003 -0.2500000000000003 -0.2500000000000003 -0.2500000000000003 
-0.6545084971874736 -0.6545084971874736 -0.6545084971874736 -0.6545084971874736 -0.8090169943749475 -0.8090169943749475 -0.8090169943749475 -0.8090169943749475 -0.6545084971874738 
-0.6545084971874738 -0.6545084971874738 -0.6545084971874738 -0.2500000000000002 -0.2500000000000002 -0.2500000000000002 -0.2500000000000002 0.3090169943749473 0.3090169943749473 
0.3090169943749473 0.3090169943749473 0.8090169943749475 0.8090169943749475 0.8090169943749475 0.8090169943749475 1 1 1 
1 0.8090169943749475 0.8090169943749475 0.8090169943749475 0.8090169943749475 0.309016994374948 0.309016994374948 0.309016994374948 0.309016994374948 
-0.3090169943749477 -0.3090169943749477 -0.3090169943749477 -0.3090169943749477 -0.8090169943749473 -0.8090169943749473 -0.8090169943749473 -0.8090169943749473 -1 
-1 -1 -1 -0.8090169943749481 -0.8090169943749481 -0.8090169943749481 -0.8090169943749481 -0.3090169943749477 -0.3090169943749477 
-0.3090169943749477 -0.3090169943749477 0.25 0.25 0.25 0.25 0.6545084971874737 0.6545084971874737 0.6545084971874737 
0.6545084971874737 0.8090169943749475 0.8090169943749475 0.8090169943749475 0.8090169943749475 0.6545084971874737 0.6545084971874737 0.6545084971874737 0.6545084971874737 
0.2500000000000004 0.2500000000000004 0.2500000000000004 0.2500000000000004 -0.2500000000000003 -0.2500000000000003 -0.2500000000000003 -0.2500000000000003 -0.6545084971874736 
-0.6545084971874736 -0.6545084971874736 -0.6545084971874736 -0.8090169943749475 -0.8090169943749475 -0.8090169943749475 -0.8090169943749475 -0.6545084971874743 -0.6545084971874743 
-0.6545084971874743 -0.6545084971874743 -0.2500000000000002 -0.2500000000000002 -0.2500000000000002 -0.2500000000000002 0.09549150281252629 0.09549150281252629 0.09549150281252629 
0.09549150281252629 0.25 0.25 0.25 0.25 0.3090169943749475 0.3090169943749475 0.3090169943749475 0.3090169943749475 
0.2500000000000001 0.2500000000000001 0.2500000000000001 0.2500000000000001 0.09549150281252648 0.09549150281252648 0.09549150281252648 0.09549150281252648 -0.09549150281252641 
-0.09549150281252641 -0.09549150281252641 -0.09549150281252641 -0.2499999999999999 -0.2499999999999999 -0.2499999999999999 -0.2499999999999999 -0.3090169943749475 -0.3090169943749475 
-0.3090169943749475 -0.3090169943749475 -0.2499999999999999 -0.2499999999999999 -0.2499999999999999 -0.2499999999999999 -0.09549150281252639 -0.09549150281252639 -0.09549150281252639 
-0.09549150281252639 -0.09549150281252634 -0.09549150281252634 -0.09549150281252634 -0.09549150281252634 -0.2500000000000002 -0.2500000000000002 -0.2500000000000002 -0.2500000000000002 
-0.3090169943749477 -0.3090169943749477 -0.3090169943749477 -0.3090169943749477 -0.2500000000000003 -0.2500000000000003 -0.2500000000000003 -0.2500000000000003 -0.09549150281252654 
-0.09549150281252654 -0.09549150281252654 -0.09549150281252654 0.09549150281252648 0.09549150281252648 0.09549150281252648 0.09549150281252648 0.2500000000000002 0.2500000000000002 
0.2500000000000002 0.2500000000000002 0.3090169943749477 0.3090169943749477 0.3090169943749477 0.3090169943749477 0.2500000000000001 0.2500000000000001 0.2500000000000001 
0.2500000000000001 0.09549150281252645 0.09549150281252645 0.09549150281252645 0.09549150281252645 -0.2500000000000001 -0.2500000000000001 -0.2500000000000001 -0.2500000000000001 
-0.6545084971874739 -0.6545084971874739 -0.6545084971874739 -0.6545084971874739 -0.8090169943749473 -0.8090169943749473 -0.8090169943749473 -0.8090169943749473 -0.6545084971874736 
-0.6545084971874736 -0.6545084971874736 -0.6545084971874736 -0.2500000000000006 -0.2500000000000006 -0.2500000000000006 -0.2500000000000006 0.2500000000000004 0.2500000000000004 
0.2500000000000004 0.2500000000000004 0.6545084971874745 0.6545084971874745 0.6545084971874745 0.6545084971874745 0.8090169943749479 0.8090169943749479 0.8090169943749479 
0.8090169943749479 0.6545084971874737 0.6545084971874737 0.6545084971874737 0.6545084971874737 0.2500000000000003 0.2500000000000003 0.2500000000000003 0.2500000000000003 
-0.3090169943749474 -0.3090169943749474 -0.3090169943749474 -0.3090169943749474 -0.8090169943749475 -0.8090169943749475 -0.8090169943749475 -0.8090169943749475 -1 
-1 -1 -1 -0.8090169943749475 -0.8090169943749475 -0.8090169943749475 -0.8090169943749475 -0.309016994374948 -0.309016994374948 
-0.309016994374948 -0.309016994374948 0.3090169943749477 0.3090169943749477 0.3090169943749477 0.3090169943749477 0.8090169943749479 0.8090169943749479 0.8090169943749479 
0.8090169943749479 1 1 1 1 0.809016994374947 0.809016994374947 0.809016994374947 0.809016994374947 
0.3090169943749477 0.3090169943749477 0.3090169943749477 0.3090169943749477 -0.25 -0.25 -0.25 -0.25 -0.6545084971874734 
-0.6545084971874734 -0.6545084971874734 -0.6545084971874734 -0.809016994374947 -0.809016994374947 -0.809016994374947 -0.809016994374947 -0.6545084971874734 -0.6545084971874734 
-0.6545084971874734 -0.6545084971874734 -0.2500000000000003 -0.2500000000000003 -0.2500000000000003 -0.2500000000000003 0.2500000000000001 0.2500000000000001 0.2500000000000001 
0.2500000000000001 0.6545084971874737 0.6545084971874737 0.6545084971874737 0.6545084971874737 0.809016994374947 0.809016994374947 0.809016994374947 0.809016994374947 
0.6545084971874735 0.6545084971874735 0.6545084971874735 0.6545084971874735 0.2500000000000002 0.2500000000000002 0.2500000000000002 0.2500000000000002 -0.09549150281252636 
-0.09549150281252636 -0.09549150281252636 -0.09549150281252636 -0.2500000000000002 -0.2500000000000002 -0.2500000000000002 -0.2500000000000002 -0.3090169943749468 -0.3090169943749468 
-0.3090169943749468 -0.3090169943749468 -0.2499999999999995 -0.2499999999999995 -0.2499999999999995 -0.2499999999999995 -0.09549150281252652 -0.09549150281252652 -0.09549150281252652 
-0.09549150281252652 0.09549150281252645 0.09549150281252645 0.09549150281252645 0.09549150281252645 0.2499999999999996 0.2499999999999996 0.2499999999999996 0.2499999999999996 
0.3090169943749477 0.3090169943749477 0.3090169943749477 0.3090169943749477 0.2500000000000001 0.2500000000000001 0.2500000000000001 0.2500000000000001 0.09549150281252644 
0.09549150281252644 0.09549150281252644 0.09549150281252644 