Title = Result/Post/Linear_Advection_2D/FVM/MLP_u1_Least_Square/Sine_Wave_2D/Quad10/
FileType = Solution
Variables = q
Zone T = Result/Post/Linear_Advection_2D/FVM/MLP_u1_Least_Square/Sine_Wave_2D/Quad10/
ZoneType = FETriangle
Nodes = 400
Elements = 200
DataPacking = Block
StrandID = 14
SolutionTime = 1.3
-0.09660535035977891 -0.09660535035977891 -0.09660535035977891 -0.09660535035977891 -0.08493366261217278 -0.08493366261217278 -0.08493366261217278 -0.08493366261217278 -0.0489684465268491 -0.0489684465268491 
-0.0489684465268491 -0.0489684465268491 0.008461796638637966 0.008461796638637966 0.008461796638637966 0.008461796638637966 0.06726596343102262 0.06726596343102262 0.06726596343102262 
0.06726596343102262 0.09939069111344534 0.09939069111344534 0.09939069111344534 0.09939069111344534 0.09155749483262716 0.09155749483262716 0.09155749483262716 0.09155749483262716 
0.05384999080194981 0.05384999080194981 0.05384999080194981 0.05384999080194981 -0.01282831949883203 -0.01282831949883203 -0.01282831949883203 -0.01282831949883203 -0.09160564112330118 
-0.09160564112330118 -0.09160564112330118 -0.09160564112330118 -0.01595993841408085 -0.01595993841408085 -0.01595993841408085 -0.01595993841408085 -0.01529346273871919 -0.01529346273871919 
-0.01529346273871919 -0.01529346273871919 -0.01199599705113427 -0.01199599705113427 -0.01199599705113427 -0.01199599705113427 -0.004263540649755346 -0.004263540649755346 -0.004263540649755346 
-0.004263540649755346 0.006396006143326935 0.006396006143326935 0.006396006143326935 0.006396006143326935 0.01232845299859679 0.01232845299859679 0.01232845299859679 0.01232845299859679 
0.01183793875373946 0.01183793875373946 0.01183793875373946 0.01183793875373946 0.01170004862341027 0.01170004862341027 0.01170004862341027 0.01170004862341027 0.006577221104098602 
0.006577221104098602 0.006577221104098602 0.006577221104098602 -0.007474778459634729 -0.007474778459634729 -0.007474778459634729 -0.007474778459634729 0.0990944085059859 0.0990944085059859 
0.0990944085059859 0.0990944085059859 0.08395483387576508 0.08395483387576508 0.08395483387576508 0.08395483387576508 0.04014726356340172 0.04014726356340172 0.04014726356340172 
0.04014726356340172 -0.0218062207440138 -0.0218062207440138 -0.0218062207440138 -0.0218062207440138 -0.07800795982045788 -0.07800795982045788 -0.07800795982045788 -0.07800795982045788 
-0.108685924679944 -0.108685924679944 -0.108685924679944 -0.108685924679944 -0.09885299829413277 -0.09885299829413277 -0.09885299829413277 -0.09885299829413277 -0.0475856949337037 
-0.0475856949337037 -0.0475856949337037 -0.0475856949337037 0.03143064478975001 0.03143064478975001 0.03143064478975001 0.03143064478975001 0.1015151890863799 0.1015151890863799 
0.1015151890863799 0.1015151890863799 0.1820909235775857 0.1820909235775857 0.1820909235775857 0.1820909235775857 0.1573216645019724 0.1573216645019724 0.1573216645019724 
0.1573216645019724 0.07864184927877751 0.07864184927877751 0.07864184927877751 0.07864184927877751 -0.03428647155348599 -0.03428647155348599 -0.03428647155348599 -0.03428647155348599 
-0.1405109008618789 -0.1405109008618789 -0.1405109008618789 -0.1405109008618789 -0.1969759611133745 -0.1969759611133745 -0.1969759611133745 -0.1969759611133745 -0.1798316766534696 
-0.1798316766534696 -0.1798316766534696 -0.1798316766534696 -0.09139591901932975 -0.09139591901932975 -0.09139591901932975 -0.09139591901932975 0.0484516553542706 0.0484516553542706 
0.0484516553542706 0.0484516553542706 0.1782890741418347 0.1782890741418347 0.1782890741418347 0.1782890741418347 0.1987882988596129 0.1987882988596129 0.1987882988596129 
0.1987882988596129 0.17329609098581 0.17329609098581 0.17329609098581 0.17329609098581 0.08835942368760537 0.08835942368760537 0.08835942368760537 0.08835942368760537 
-0.03552485403820008 -0.03552485403820008 -0.03552485403820008 -0.03552485403820008 -0.152984574623344 -0.152984574623344 -0.152984574623344 -0.152984574623344 -0.2146063700481069 
-0.2146063700481069 -0.2146063700481069 -0.2146063700481069 -0.1968431695298331 -0.1968431695298331 -0.1968431695298331 -0.1968431695298331 -0.1020228942287483 -0.1020228942287483 
-0.1020228942287483 -0.1020228942287483 0.04934010674734647 0.04934010674734647 0.04934010674734647 0.04934010674734647 0.191433801757025 0.191433801757025 0.191433801757025 
0.191433801757025 0.1419038156610053 0.1419038156610053 0.1419038156610053 0.1419038156610053 0.124563601458624 0.124563601458624 0.124563601458624 0.124563601458624 
0.06499860305409159 0.06499860305409159 0.06499860305409159 0.06499860305409159 -0.02235648474842709 -0.02235648474842709 -0.02235648474842709 -0.02235648474842709 -0.1061325899169371 
-0.1061325899169371 -0.1061325899169371 -0.1061325899169371 -0.152027968705359 -0.152027968705359 -0.152027968705359 -0.152027968705359 -0.1404356320398766 -0.1404356320398766 
-0.1404356320398766 -0.1404356320398766 -0.07369850186875057 -0.07369850186875057 -0.07369850186875057 -0.07369850186875057 0.03148676000271349 0.03148676000271349 0.03148676000271349 
0.03148676000271349 0.132721426317356 0.132721426317356 0.132721426317356 0.132721426317356 0.02140802703706979 0.02140802703706979 0.02140802703706979 0.02140802703706979 
0.02065505272137061 0.02065505272137061 0.02065505272137061 0.02065505272137061 0.01346718772167207 0.01346718772167207 0.01346718772167207 0.01346718772167207 0.002331069795980367 
0.002331069795980367 0.002331069795980367 0.002331069795980367 -0.00972251690487435 -0.00972251690487435 -0.00972251690487435 -0.00972251690487435 -0.01845414462317053 -0.01845414462317053 
-0.01845414462317053 -0.01845414462317053 -0.02022767915699456 -0.02022767915699456 -0.02022767915699456 -0.02022767915699456 -0.01350088342084405 -0.01350088342084405 -0.01350088342084405 
-0.01350088342084405 -0.0009763776496868996 -0.0009763776496868996 -0.0009763776496868996 -0.0009763776496868996 0.01480031557964248 0.01480031557964248 0.01480031557964248 0.01480031557964248 
-0.1177903063408656 -0.1177903063408656 -0.1177903063408656 -0.1177903063408656 -0.1014559974994475 -0.1014559974994475 -0.1014559974994475 -0.1014559974994475 -0.04840158290765409 
-0.04840158290765409 -0.04840158290765409 -0.04840158290765409 0.02803044201942775 0.02803044201942775 0.02803044201942775 0.02803044201942775 0.09841876461592328 0.09841876461592328 
0.09841876461592328 0.09841876461592328 0.1337783957925206 0.1337783957925206 0.1337783957925206 0.1337783957925206 0.1181317216900899 0.1181317216900899 0.1181317216900899 
0.1181317216900899 0.05635273230492316 0.05635273230492316 0.05635273230492316 0.05635273230492316 -0.03655291814877398 -0.03655291814877398 -0.03655291814877398 -0.03655291814877398 
-0.1186741059820852 -0.1186741059820852 -0.1186741059820852 -0.1186741059820852 -0.2271185352610786 -0.2271185352610786 -0.2271185352610786 -0.2271185352610786 -0.1928936946686457 
-0.1928936946686457 -0.1928936946686457 -0.1928936946686457 -0.09277887228300821 -0.09277887228300821 -0.09277887228300821 -0.09277887228300821 0.04910529574433381 0.04910529574433381 
0.04910529574433381 0.04910529574433381 0.1799626811896613 0.1799626811896613 0.1799626811896613 0.1799626811896613 0.2459186145357202 0.2459186145357202 0.2459186145357202 
0.2459186145357202 0.2188827158421897 0.2188827158421897 0.2188827158421897 0.2188827158421897 0.1051019370038631 0.1051019370038631 0.1051019370038631 0.1051019370038631 
-0.06522673663110944 -0.06522673663110944 -0.06522673663110944 -0.06522673663110944 -0.2176279763324187 -0.2176279763324187 -0.2176279763324187 -0.2176279763324187 -0.1857149240656134 
-0.1857149240656134 -0.1857149240656134 -0.1857149240656134 -0.1646801621939939 -0.1646801621939939 -0.1646801621939939 -0.1646801621939939 -0.08528095594623189 -0.08528095594623189 
-0.08528095594623189 -0.08528095594623189 0.03224971232077321 0.03224971232077321 0.03224971232077321 0.03224971232077321 0.1444983019050924 0.1444983019050924 0.1444983019050924 
0.1444983019050924 0.2031610860776046 0.2031610860776046 0.2031610860776046 0.2031610860776046 0.1845154726123779 0.1845154726123779 0.1845154726123779 0.1845154726123779 
0.09470357039568401 0.09470357039568401 0.09470357039568401 0.09470357039568401 -0.04678604415712443 -0.04678604415712443 -0.04678604415712443 -0.04678604415712443 -0.1843018175244326 
-0.1843018175244326 -0.1843018175244326 -0.1843018175244326 