Title = Result/Post/Linear_Advection_2D/FVM/MLP_u1_Least_Square/Sine_Wave_2D/Quad10/
FileType = Solution
Variables = q
Zone T = Result/Post/Linear_Advection_2D/FVM/MLP_u1_Least_Square/Sine_Wave_2D/Quad10/
ZoneType = FETriangle
Nodes = 400
Elements = 200
DataPacking = Block
StrandID = 16
SolutionTime = 1.5
-0.05514021955506669 -0.05514021955506669 -0.05514021955506669 -0.05514021955506669 -0.09943490013091257 -0.09943490013091257 -0.09943490013091257 -0.09943490013091257 -0.1374676182948927 -0.1374676182948927 
-0.1374676182948927 -0.1374676182948927 -0.12942213289513 -0.12942213289513 -0.12942213289513 -0.12942213289513 -0.06966339839377655 -0.06966339839377655 -0.06966339839377655 
-0.06966339839377655 0.02403158833251006 0.02403158833251006 0.02403158833251006 0.02403158833251006 0.113921234273741 0.113921234273741 0.113921234273741 0.113921234273741 
0.1610267073947867 0.1610267073947867 0.1610267073947867 0.1610267073947867 0.1562815308984286 0.1562815308984286 0.1562815308984286 0.1562815308984286 0.02939055997055815 
0.02939055997055815 0.02939055997055815 0.02939055997055815 -0.03700703255512823 -0.03700703255512823 -0.03700703255512823 -0.03700703255512823 -0.07139919857075554 -0.07139919857075554 
-0.07139919857075554 -0.07139919857075554 -0.09895256844830863 -0.09895256844830863 -0.09895256844830863 -0.09895256844830863 -0.09392870561391484 -0.09392870561391484 -0.09392870561391484 
-0.09392870561391484 -0.05203877887745448 -0.05203877887745448 -0.05203877887745448 -0.05203877887745448 0.01428100472779643 0.01428100472779643 0.01428100472779643 0.01428100472779643 
0.07851954638206204 0.07851954638206204 0.07851954638206204 0.07851954638206204 0.113487080675207 0.113487080675207 0.113487080675207 0.113487080675207 0.1102917091674578 
0.1102917091674578 0.1102917091674578 0.1102917091674578 0.02628002090629846 0.02628002090629846 0.02628002090629846 0.02628002090629846 -0.0004782898115071096 -0.0004782898115071096 
-0.0004782898115071096 -0.0004782898115071096 -0.007719212332921173 -0.007719212332921173 -0.007719212332921173 -0.007719212332921173 -0.01472634039287504 -0.01472634039287504 -0.01472634039287504 
-0.01472634039287504 -0.01687340867136589 -0.01687340867136589 -0.01687340867136589 -0.01687340867136589 -0.01253934474440891 -0.01253934474440891 -0.01253934474440891 -0.01253934474440891 
-0.002644683944688201 -0.002644683944688201 -0.002644683944688201 -0.002644683944688201 0.008153503310091934 0.008153503310091934 0.008153503310091934 0.008153503310091934 0.01492441954849959 
0.01492441954849959 0.01492441954849959 0.01492441954849959 0.01636175689276943 0.01636175689276943 0.01636175689276943 0.01636175689276943 0.009239009353412342 0.009239009353412342 
0.009239009353412342 0.009239009353412342 0.03730528050099685 0.03730528050099685 0.03730528050099685 0.03730528050099685 0.06236328299066008 0.06236328299066008 0.06236328299066008 
0.06236328299066008 0.08058486438266911 0.08058486438266911 0.08058486438266911 0.08058486438266911 0.07128005621986472 0.07128005621986472 0.07128005621986472 0.07128005621986472 
0.0338777992441022 0.0338777992441022 0.0338777992441022 0.0338777992441022 -0.01939108058702149 -0.01939108058702149 -0.01939108058702149 -0.01939108058702149 -0.06891096362011563 
-0.06891096362011563 -0.06891096362011563 -0.06891096362011563 -0.09481187952897116 -0.09481187952897116 -0.09481187952897116 -0.09481187952897116 -0.08935850841376633 -0.08935850841376633 
-0.08935850841376633 -0.08935850841376633 -0.01420877773557713 -0.01420877773557713 -0.01420877773557713 -0.01420877773557713 0.0615196940173038 0.0615196940173038 0.0615196940173038 
0.0615196940173038 0.1112193967825875 0.1112193967825875 0.1112193967825875 0.1112193967825875 0.1483811455253389 0.1483811455253389 0.1483811455253389 0.1483811455253389 
0.1352684517370168 0.1352684517370168 0.1352684517370168 0.1352684517370168 0.068783015731886 0.068783015731886 0.068783015731886 0.068783015731886 -0.03014695050593788 
-0.03014695050593788 -0.03014695050593788 -0.03014695050593788 -0.1239345444718796 -0.1239345444718796 -0.1239345444718796 -0.1239345444718796 -0.1732014973527002 -0.1732014973527002 
-0.1732014973527002 -0.1732014973527002 -0.164172264497067 -0.164172264497067 -0.164172264497067 -0.164172264497067 -0.03145908266024086 -0.03145908266024086 -0.03145908266024086 
-0.03145908266024086 0.06329691394979002 0.06329691394979002 0.06329691394979002 0.06329691394979002 0.11899802622998 0.11899802622998 0.11899802622998 0.11899802622998 
0.1609626737094951 0.1609626737094951 0.1609626737094951 0.1609626737094951 0.1487583840049626 0.1487583840049626 0.1487583840049626 0.1487583840049626 0.07775933604238107 
0.07775933604238107 0.07775933604238107 0.07775933604238107 -0.03057189803901527 -0.03057189803901527 -0.03057189803901527 -0.03057189803901527 -0.1338219349505637 -0.1338219349505637 
-0.1338219349505637 -0.1338219349505637 -0.1878800135690938 -0.1878800135690938 -0.1878800135690938 -0.1878800135690938 -0.1785580790914281 -0.1785580790914281 -0.1785580790914281 
-0.1785580790914281 -0.03834598733209656 -0.03834598733209656 -0.03834598733209656 -0.03834598733209656 0.04236135860708372 0.04236135860708372 0.04236135860708372 0.04236135860708372 
0.08194811970139626 0.08194811970139626 0.08194811970139626 0.08194811970139626 0.1137338772936306 0.1137338772936306 0.1137338772936306 0.1137338772936306 0.1063247330709484 
0.1063247330709484 0.1063247330709484 0.1063247330709484 0.05688987231068295 0.05688987231068295 0.05688987231068295 0.05688987231068295 -0.01848781334487006 -0.01848781334487006 
-0.01848781334487006 -0.01848781334487006 -0.09149284762425376 -0.09149284762425376 -0.09149284762425376 -0.09149284762425376 -0.1317056548679072 -0.1317056548679072 -0.1317056548679072 
-0.1317056548679072 -0.1269079896525618 -0.1269079896525618 -0.1269079896525618 -0.1269079896525618 -0.02947964962232794 -0.02947964962232794 -0.02947964962232794 -0.02947964962232794 
0.001683812624883775 0.001683812624883775 0.001683812624883775 0.001683812624883775 0.009347196877809247 0.009347196877809247 0.009347196877809247 0.009347196877809247 0.0159447095003041 
0.0159447095003041 0.0159447095003041 0.0159447095003041 0.01708831551547744 0.01708831551547744 0.01708831551547744 0.01708831551547744 0.0119830055964781 0.0119830055964781 
0.0119830055964781 0.0119830055964781 0.002628405183700861 0.002628405183700861 0.002628405183700861 0.002628405183700861 -0.007802213182193334 -0.007802213182193334 -0.007802213182193334 
-0.007802213182193334 -0.01542412185250616 -0.01542412185250616 -0.01542412185250616 -0.01542412185250616 -0.0171873152945484 -0.0171873152945484 -0.0171873152945484 -0.0171873152945484 
-0.009204193352254128 -0.009204193352254128 -0.009204193352254128 -0.009204193352254128 -0.0464753236680072 -0.0464753236680072 -0.0464753236680072 -0.0464753236680072 -0.07985770489632633 
-0.07985770489632633 -0.07985770489632633 -0.07985770489632633 -0.1025426407326773 -0.1025426407326773 -0.1025426407326773 -0.1025426407326773 -0.08989556801794721 -0.08989556801794721 
-0.08989556801794721 -0.08989556801794721 -0.04109750754260749 -0.04109750754260749 -0.04109750754260749 -0.04109750754260749 0.02829935793833907 0.02829935793833907 0.02829935793833907 
0.02829935793833907 0.09158874508501302 0.09158874508501302 0.09158874508501302 0.09158874508501302 0.1213778628724387 0.1213778628724387 0.1213778628724387 0.1213778628724387 
0.1105143553001617 0.1105143553001617 0.1105143553001617 0.1105143553001617 0.018733825797103 0.018733825797103 0.018733825797103 0.018733825797103 -0.06861425587133188 
-0.06861425587133188 -0.06861425587133188 -0.06861425587133188 -0.1240714917721564 -0.1240714917721564 -0.1240714917721564 -0.1240714917721564 -0.1644855121056613 -0.1644855121056613 
-0.1644855121056613 -0.1644855121056613 -0.1496793118509354 -0.1496793118509354 -0.1496793118509354 -0.1496793118509354 -0.0747851435772853 -0.0747851435772853 -0.0747851435772853 
-0.0747851435772853 0.03608979781120342 0.03608979781120342 0.03608979781120342 0.03608979781120342 0.139604168758155 0.139604168758155 0.139604168758155 0.139604168758155 
0.1916269944112958 0.1916269944112958 0.1916269944112958 0.1916269944112958 0.1785093315591124 0.1785093315591124 0.1785093315591124 0.1785093315591124 0.03457971569907235 
0.03457971569907235 0.03457971569907235 0.03457971569907235 