Title = Result/Post/Linear_Advection_2D/FVM/MLP_u1_Least_Square/Sine_Wave_2D/Quad10/
FileType = Solution
Variables = q
Zone T = Result/Post/Linear_Advection_2D/FVM/MLP_u1_Least_Square/Sine_Wave_2D/Quad10/
ZoneType = FETriangle
Nodes = 400
Elements = 200
DataPacking = Block
StrandID = 4
SolutionTime = 0.3
0.2931380896930493 0.2931380896930493 0.2931380896930493 0.2931380896930493 0.2572091735253897 0.2572091735253897 0.2572091735253897 0.2572091735253897 0.1396185891423423 0.1396185891423423 
0.1396185891423423 0.1396185891423423 -0.05410361944516878 -0.05410361944516878 -0.05410361944516878 -0.05410361944516878 -0.2510967836702558 -0.2510967836702558 -0.2510967836702558 
-0.2510967836702558 -0.3473453324932827 -0.3473453324932827 -0.3473453324932827 -0.3473453324932827 -0.3044455876961044 -0.3044455876961044 -0.3044455876961044 -0.3044455876961044 
-0.1373750931828346 -0.1373750931828346 -0.1373750931828346 -0.1373750931828346 0.1038760270161919 0.1038760270161919 0.1038760270161919 0.1038760270161919 0.3010511450219394 
0.3010511450219394 0.3010511450219394 0.3010511450219394 0.08043465430083935 0.08043465430083935 0.08043465430083935 0.08043465430083935 0.06200560847928771 0.06200560847928771 
0.06200560847928771 0.06200560847928771 0.02959448583993788 0.02959448583993788 0.02959448583993788 0.02959448583993788 -0.01372501854347872 -0.01372501854347872 -0.01372501854347872 
-0.01372501854347872 -0.05763152209240675 -0.05763152209240675 -0.05763152209240675 -0.05763152209240675 -0.07858217592792933 -0.07858217592792933 -0.07858217592792933 -0.07858217592792933 
-0.06948860928235519 -0.06948860928235519 -0.06948860928235519 -0.06948860928235519 -0.03150241690394801 -0.03150241690394801 -0.03150241690394801 -0.03150241690394801 0.02092898204486489 
0.02092898204486489 0.02092898204486489 0.02092898204486489 0.06193329351504667 0.06193329351504667 0.06193329351504667 0.06193329351504667 -0.2992424625509157 -0.2992424625509157 
-0.2992424625509157 -0.2992424625509157 -0.262037899139153 -0.262037899139153 -0.262037899139153 -0.262037899139153 -0.1343471304533732 -0.1343471304533732 -0.1343471304533732 
-0.1343471304533732 0.06761716789020637 0.06761716789020637 0.06761716789020637 0.06761716789020637 0.2625924417344492 0.2625924417344492 0.2625924417344492 0.2625924417344492 
0.3585149598112286 0.3585149598112286 0.3585149598112286 0.3585149598112286 0.3053530572759561 0.3053530572759561 0.3053530572759561 0.3053530572759561 0.1262369321323535 
0.1262369321323535 0.1262369321323535 0.1262369321323535 -0.1169615765594168 -0.1169615765594168 -0.1169615765594168 -0.1169615765594168 -0.3089887283882058 -0.3089887283882058 
-0.3089887283882058 -0.3089887283882058 -0.5895043461711964 -0.5895043461711964 -0.5895043461711964 -0.5895043461711964 -0.5094248958796399 -0.5094248958796399 -0.5094248958796399 
-0.5094248958796399 -0.2577780506678711 -0.2577780506678711 -0.2577780506678711 -0.2577780506678711 0.1312597436277309 0.1312597436277309 0.1312597436277309 0.1312597436277309 
0.5093164247809141 0.5093164247809141 0.5093164247809141 0.5093164247809141 0.6870363320533103 0.6870363320533103 0.6870363320533103 0.6870363320533103 0.5895522701795535 
0.5895522701795535 0.5895522701795535 0.5895522701795535 0.2472283513804719 0.2472283513804719 0.2472283513804719 0.2472283513804719 -0.2184858611911793 -0.2184858611911793 
-0.2184858611911793 -0.2184858611911793 -0.5899672343983987 -0.5899672343983987 -0.5899672343983987 -0.5899672343983987 -0.6243610727369413 -0.6243610727369413 -0.6243610727369413 
-0.6243610727369413 -0.5416978979547815 -0.5416978979547815 -0.5416978979547815 -0.5416978979547815 -0.2755264944401375 -0.2755264944401375 -0.2755264944401375 -0.2755264944401375 
0.1365004502047938 0.1365004502047938 0.1365004502047938 0.1365004502047938 0.5361095063938864 0.5361095063938864 0.5361095063938864 0.5361095063938864 0.7242854713116267 
0.7242854713116267 0.7242854713116267 0.7242854713116267 0.6261362316333604 0.6261362316333604 0.6261362316333604 0.6261362316333604 0.2663517294911047 0.2663517294911047 
0.2663517294911047 0.2663517294911047 -0.2265446456018107 -0.2265446456018107 -0.2265446456018107 -0.2265446456018107 -0.6210270232444687 -0.6210270232444687 -0.6210270232444687 
-0.6210270232444687 -0.4037579373968785 -0.4037579373968785 -0.4037579373968785 -0.4037579373968785 -0.3500138810214154 -0.3500138810214154 -0.3500138810214154 -0.3500138810214154 
-0.1786551588653933 -0.1786551588653933 -0.1786551588653933 -0.1786551588653933 0.08235972381433676 0.08235972381433676 0.08235972381433676 0.08235972381433676 0.3395997454974912 
0.3395997454974912 0.3395997454974912 0.3395997454974912 0.4684018700189503 0.4684018700189503 0.4684018700189503 0.4684018700189503 0.4049931769070321 0.4049931769070321 
0.4049931769070321 0.4049931769070321 0.1746546174815959 0.1746546174815959 0.1746546174815959 0.1746546174815959 -0.1400769036927227 -0.1400769036927227 -0.1400769036927227 
-0.1400769036927227 -0.3971657512398356 -0.3971657512398356 -0.3971657512398356 -0.3971657512398356 -0.0140048900946021 -0.0140048900946021 -0.0140048900946021 -0.0140048900946021 
-0.01196982108037429 -0.01196982108037429 -0.01196982108037429 -0.01196982108037429 -0.007793336752901111 -0.007793336752901111 -0.007793336752901111 -0.007793336752901111 -0.003839145020060446 
-0.003839145020060446 -0.003839145020060446 -0.003839145020060446 0.004031768999651686 0.004031768999651686 0.004031768999651686 0.004031768999651686 0.01199002015148732 0.01199002015148732 
0.01199002015148732 0.01199002015148732 0.01519301640068942 0.01519301640068942 0.01519301640068942 0.01519301640068942 0.01105229045964855 0.01105229045964855 0.01105229045964855 
0.01105229045964855 0.003092387465242148 0.003092387465242148 0.003092387465242148 0.003092387465242148 -0.008427841437971529 -0.008427841437971529 -0.008427841437971529 -0.008427841437971529 
0.3832118143240398 0.3832118143240398 0.3832118143240398 0.3832118143240398 0.3342750825647539 0.3342750825647539 0.3342750825647539 0.3342750825647539 0.1684107561845005 
0.1684107561845005 0.1684107561845005 0.1684107561845005 -0.08841032642514243 -0.08841032642514243 -0.08841032642514243 -0.08841032642514243 -0.3337261134162331 -0.3337261134162331 
-0.3337261134162331 -0.3337261134162331 -0.4515705678329918 -0.4515705678329918 -0.4515705678329918 -0.4515705678329918 -0.3837891454596331 -0.3837891454596331 -0.3837891454596331 
-0.3837891454596331 -0.1581762151577592 -0.1581762151577592 -0.1581762151577592 -0.1581762151577592 0.1461210067189011 0.1461210067189011 0.1461210067189011 0.1461210067189011 
0.3859611839682816 0.3859611839682816 0.3859611839682816 0.3859611839682816 0.6428532473266377 0.6428532473266377 0.6428532473266377 0.6428532473266377 0.5527586577016146 
0.5527586577016146 0.5527586577016146 0.5527586577016146 0.2757921087100684 0.2757921087100684 0.2757921087100684 0.2757921087100684 -0.1466499793087956 -0.1466499793087956 
-0.1466499793087956 -0.1466499793087956 -0.5511945282349709 -0.5511945282349709 -0.5511945282349709 -0.5511945282349709 -0.7445817390509358 -0.7445817390509358 -0.7445817390509358 
-0.7445817390509358 -0.6366187143320572 -0.6366187143320572 -0.6366187143320572 -0.6366187143320572 -0.2648187637198225 -0.2648187637198225 -0.2648187637198225 -0.2648187637198225 
0.2368475916974692 0.2368475916974692 0.2368475916974692 0.2368475916974692 0.6343289525119048 0.6343289525119048 0.6343289525119048 0.6343289525119048 0.5284783091789436 
0.5284783091789436 0.5284783091789436 0.5284783091789436 0.4672050383844644 0.4672050383844644 0.4672050383844644 0.4672050383844644 0.2423529888414274 0.2423529888414274 
0.2423529888414274 0.2423529888414274 -0.1120716216489259 -0.1120716216489259 -0.1120716216489259 -0.1120716216489259 -0.4603298723137741 -0.4603298723137741 -0.4603298723137741 
-0.4603298723137741 -0.629078238029774 -0.629078238029774 -0.629078238029774 -0.629078238029774 -0.5443999520589589 -0.5443999520589589 -0.5443999520589589 -0.5443999520589589 
-0.2345375758756367 -0.2345375758756367 -0.2345375758756367 -0.2345375758756367 0.1938058928904867 0.1938058928904867 0.1938058928904867 0.1938058928904867 0.5451971314033721 
0.5451971314033721 0.5451971314033721 0.5451971314033721 