Title = Result/Post/Linear_Advection_2D/FVM/MLP_u1_Least_Square/Sine_Wave_2D/Quad10/
FileType = Solution
Variables = q
Zone T = Result/Post/Linear_Advection_2D/FVM/MLP_u1_Least_Square/Sine_Wave_2D/Quad10/
ZoneType = FETriangle
Nodes = 400
Elements = 200
DataPacking = Block
StrandID = 8
SolutionTime = 0.7000000000000001
-0.2686973465124759 -0.2686973465124759 -0.2686973465124759 -0.2686973465124759 -0.1444452135074042 -0.1444452135074042 -0.1444452135074042 -0.1444452135074042 0.07783324934755145 0.07783324934755145 
0.07783324934755145 0.07783324934755145 0.283143719869465 0.283143719869465 0.283143719869465 0.283143719869465 0.3892765711101279 0.3892765711101279 0.3892765711101279 
0.3892765711101279 0.3543005576799044 0.3543005576799044 0.3543005576799044 0.3543005576799044 0.1739334399746087 0.1739334399746087 0.1739334399746087 0.1739334399746087 
-0.09037737624962734 -0.09037737624962734 -0.09037737624962734 -0.09037737624962734 -0.3680070429768832 -0.3680070429768832 -0.3680070429768832 -0.3680070429768832 -0.4063582114874705 
-0.4063582114874705 -0.4063582114874705 -0.4063582114874705 -0.2673680658296226 -0.2673680658296226 -0.2673680658296226 -0.2673680658296226 -0.1421124222627076 -0.1421124222627076 
-0.1421124222627076 -0.1421124222627076 0.07385582564491364 0.07385582564491364 0.07385582564491364 0.07385582564491364 0.2764206225113776 0.2764206225113776 0.2764206225113776 
0.2764206225113776 0.3822567241435857 0.3822567241435857 0.3822567241435857 0.3822567241435857 0.3494241558379772 0.3494241558379772 0.3494241558379772 0.3494241558379772 
0.1743342933170353 0.1743342933170353 0.1743342933170353 0.1743342933170353 -0.08530028724979125 -0.08530028724979125 -0.08530028724979125 -0.08530028724979125 -0.3579093812921202 
-0.3579093812921202 -0.3579093812921202 -0.3579093812921202 -0.4029016753638756 -0.4029016753638756 -0.4029016753638756 -0.4029016753638756 -0.1933920571795587 -0.1933920571795587 
-0.1933920571795587 -0.1933920571795587 -0.1022101550469139 -0.1022101550469139 -0.1022101550469139 -0.1022101550469139 0.05184442142260799 0.05184442142260799 0.05184442142260799 
0.05184442142260799 0.1955774230464958 0.1955774230464958 0.1955774230464958 0.1955774230464958 0.2716269763598803 0.2716269763598803 0.2716269763598803 0.2716269763598803 
0.2478503707778639 0.2478503707778639 0.2478503707778639 0.2478503707778639 0.1239448397057731 0.1239448397057731 0.1239448397057731 0.1239448397057731 -0.05837514381479675 
-0.05837514381479675 -0.05837514381479675 -0.05837514381479675 -0.2472398532695497 -0.2472398532695497 -0.2472398532695497 -0.2472398532695497 -0.2852255579840864 -0.2852255579840864 
-0.2852255579840864 -0.2852255579840864 -0.04067210406406128 -0.04067210406406128 -0.04067210406406128 -0.04067210406406128 -0.02270258993187542 -0.02270258993187542 -0.02270258993187542 
-0.02270258993187542 0.004997969199042296 0.004997969199042296 0.004997969199042296 0.004997969199042296 0.03151624379501346 0.03151624379501346 0.03151624379501346 0.03151624379501346 
0.04587429440629322 0.04587429440629322 0.04587429440629322 0.04587429440629322 0.04326722047499702 0.04326722047499702 0.04326722047499702 0.04326722047499702 0.02386334376524524 
0.02386334376524524 0.02386334376524524 0.02386334376524524 -0.005448094381021628 -0.005448094381021628 -0.005448094381021628 -0.005448094381021628 -0.03618903901687875 -0.03618903901687875 
-0.03618903901687875 -0.03618903901687875 -0.04816756943515682 -0.04816756943515682 -0.04816756943515682 -0.04816756943515682 0.1657649572162387 0.1657649572162387 0.1657649572162387 
0.1657649572162387 0.0838067436302854 0.0838067436302854 0.0838067436302854 0.0838067436302854 -0.05005923286883666 -0.05005923286883666 -0.05005923286883666 -0.05005923286883666 
-0.1662390680772943 -0.1662390680772943 -0.1662390680772943 -0.1662390680772943 -0.2246500160579083 -0.2246500160579083 -0.2246500160579083 -0.2246500160579083 -0.2001206551537416 
-0.2001206551537416 -0.2001206551537416 -0.2001206551537416 -0.09391620631431852 -0.09391620631431852 -0.09391620631431852 -0.09391620631431852 0.05845283988264245 0.05845283988264245 
0.05845283988264245 0.05845283988264245 0.2123774599927742 0.2123774599927742 0.2123774599927742 0.2123774599927742 0.2417008495301836 0.2417008495301836 0.2417008495301836 
0.2417008495301836 0.2976898862287771 0.2976898862287771 0.2976898862287771 0.2976898862287771 0.1507787667149848 0.1507787667149848 0.1507787667149848 0.1507787667149848 
-0.09003601063183123 -0.09003601063183123 -0.09003601063183123 -0.09003601063183123 -0.3119376397392457 -0.3119376397392457 -0.3119376397392457 -0.3119376397392457 -0.4206513883922843 
-0.4206513883922843 -0.4206513883922843 -0.4206513883922843 -0.377114479031719 -0.377114479031719 -0.377114479031719 -0.377114479031719 -0.1819606456566417 -0.1819606456566417 
-0.1819606456566417 -0.1819606456566417 0.1029727102162145 0.1029727102162145 0.1029727102162145 0.1029727102162145 0.3949923556915592 0.3949923556915592 0.3949923556915592 
0.3949923556915592 0.4435457188144935 0.4435457188144935 0.4435457188144935 0.4435457188144935 0.3084980425549506 0.3084980425549506 0.3084980425549506 0.3084980425549506 
0.1592610994741987 0.1592610994741987 0.1592610994741987 0.1592610994741987 -0.09564176769392718 -0.09564176769392718 -0.09564176769392718 -0.09564176769392718 -0.3316318022785624 
-0.3316318022785624 -0.3316318022785624 -0.3316318022785624 -0.4469795385518688 -0.4469795385518688 -0.4469795385518688 -0.4469795385518688 -0.4039758842524891 -0.4039758842524891 
-0.4039758842524891 -0.4039758842524891 -0.1987192794899451 -0.1987192794899451 -0.1987192794899451 -0.1987192794899451 0.1056271831182091 0.1056271831182091 0.1056271831182091 
0.1056271831182091 0.4149542470723536 0.4149542470723536 0.4149542470723536 0.4149542470723536 0.4633091543695336 0.4633091543695336 0.4633091543695336 0.4633091543695336 
0.2099274666677392 0.2099274666677392 0.2099274666677392 0.2099274666677392 0.109500609228428 0.109500609228428 0.109500609228428 0.109500609228428 -0.05883769486660998 
-0.05883769486660998 -0.05883769486660998 -0.05883769486660998 -0.2155251422798086 -0.2155251422798086 -0.2155251422798086 -0.2155251422798086 -0.2970763791644218 -0.2970763791644218 
-0.2970763791644218 -0.2970763791644218 -0.269940756935706 -0.269940756935706 -0.269940756935706 -0.269940756935706 -0.1345327812196097 -0.1345327812196097 -0.1345327812196097 
-0.1345327812196097 0.06470070143036746 0.06470070143036746 0.06470070143036746 0.06470070143036746 0.2689429568521013 0.2689429568521013 0.2689429568521013 0.2689429568521013 
0.3084404414614843 0.3084404414614843 0.3084404414614843 0.3084404414614843 0.01820747645140717 0.01820747645140717 0.01820747645140717 0.01820747645140717 0.01213511089086289 
0.01213511089086289 0.01213511089086289 0.01213511089086289 0.004346320610587488 0.004346320610587488 0.004346320610587488 0.004346320610587488 -0.006097198553206872 -0.006097198553206872 
-0.006097198553206872 -0.006097198553206872 -0.01405829037188562 -0.01405829037188562 -0.01405829037188562 -0.01405829037188562 -0.01693500322888292 -0.01693500322888292 -0.01693500322888292 
-0.01693500322888292 -0.01425968983760341 -0.01425968983760341 -0.01425968983760341 -0.01425968983760341 -0.006167156950985646 -0.006167156950985646 -0.006167156950985646 -0.006167156950985646 
0.0048114400323734 0.0048114400323734 0.0048114400323734 0.0048114400323734 0.0155520472157429 0.0155520472157429 0.0155520472157429 0.0155520472157429 -0.2194656142989096 
-0.2194656142989096 -0.2194656142989096 -0.2194656142989096 -0.1015026817799439 -0.1015026817799439 -0.1015026817799439 -0.1015026817799439 0.07567685179474393 0.07567685179474393 
0.07567685179474393 0.07567685179474393 0.2336957075750075 0.2336957075750075 0.2336957075750075 0.2336957075750075 0.3112397014038263 0.3112397014038263 0.3112397014038263 
0.3112397014038263 0.2754954557388404 0.2754954557388404 0.2754954557388404 0.2754954557388404 0.1264097012130832 0.1264097012130832 0.1264097012130832 0.1264097012130832 
-0.08478721710463144 -0.08478721710463144 -0.08478721710463144 -0.08478721710463144 -0.2902709950007016 -0.2902709950007016 -0.2902709950007016 -0.2902709950007016 -0.3217668628243494 
-0.3217668628243494 -0.3217668628243494 -0.3217668628243494 