Title = Result/Post/Linear_Advection_2D/FVM/MLP_u1_Least_Square/Sine_Wave_2D/Quad10/
FileType = Solution
Variables = q
Zone T = Result/Post/Linear_Advection_2D/FVM/MLP_u1_Least_Square/Sine_Wave_2D/Quad10/
ZoneType = FETriangle
Nodes = 400
Elements = 200
DataPacking = Block
StrandID = 7
SolutionTime = 0.6000000000000001
-0.07540164005040884 -0.07540164005040884 -0.07540164005040884 -0.07540164005040884 0.100146056506443 0.100146056506443 0.100146056506443 0.100146056506443 0.3048140770593534 0.3048140770593534 
0.3048140770593534 0.3048140770593534 0.4197630375481951 0.4197630375481951 0.4197630375481951 0.4197630375481951 0.3858709014887099 0.3858709014887099 0.3858709014887099 
0.3858709014887099 0.1942066549529641 0.1942066549529641 0.1942066549529641 0.1942066549529641 -0.09850716940416127 -0.09850716940416127 -0.09850716940416127 -0.09850716940416127 
-0.3717582798950184 -0.3717582798950184 -0.3717582798950184 -0.3717582798950184 -0.5366019352785197 -0.5366019352785197 -0.5366019352785197 -0.5366019352785197 -0.3286273806971717 
-0.3286273806971717 -0.3286273806971717 -0.3286273806971717 -0.06441076955993193 -0.06441076955993193 -0.06441076955993193 -0.06441076955993193 0.08754160377575879 0.08754160377575879 
0.08754160377575879 0.08754160377575879 0.2657542170948249 0.2657542170948249 0.2657542170948249 0.2657542170948249 0.3653379837119375 0.3653379837119375 0.3653379837119375 
0.3653379837119375 0.334401019870598 0.334401019870598 0.334401019870598 0.334401019870598 0.1686420433284283 0.1686420433284283 0.1686420433284283 0.1686420433284283 
-0.08381054981613811 -0.08381054981613811 -0.08381054981613811 -0.08381054981613811 -0.3205801770609609 -0.3205801770609609 -0.3205801770609609 -0.3205801770609609 -0.4623972550943598 
-0.4623972550943598 -0.4623972550943598 -0.4623972550943598 -0.2884752154038679 -0.2884752154038679 -0.2884752154038679 -0.2884752154038679 -0.03716903283288708 -0.03716903283288708 
-0.03716903283288708 -0.03716903283288708 0.04214552176642967 0.04214552176642967 0.04214552176642967 0.04214552176642967 0.1342515917215773 0.1342515917215773 0.1342515917215773 
0.1342515917215773 0.1838507639205718 0.1838507639205718 0.1838507639205718 0.1838507639205718 0.1677482701888286 0.1677482701888286 0.1677482701888286 0.1677482701888286 
0.08474069799385822 0.08474069799385822 0.08474069799385822 0.08474069799385822 -0.04013524495989487 -0.04013524495989487 -0.04013524495989487 -0.04013524495989487 -0.1573892416542984 
-0.1573892416542984 -0.1573892416542984 -0.1573892416542984 -0.2262418733231907 -0.2262418733231907 -0.2262418733231907 -0.2262418733231907 -0.1450331142973329 -0.1450331142973329 
-0.1450331142973329 -0.1450331142973329 0.003374288773087662 0.003374288773087662 0.003374288773087662 0.003374288773087662 -0.02728958471834651 -0.02728958471834651 -0.02728958471834651 
-0.02728958471834651 -0.06925012381031168 -0.06925012381031168 -0.06925012381031168 -0.06925012381031168 -0.09311034472284559 -0.09311034472284559 -0.09311034472284559 -0.09311034472284559 
-0.0830163931767204 -0.0830163931767204 -0.0830163931767204 -0.0830163931767204 -0.03853738149775855 -0.03853738149775855 -0.03853738149775855 -0.03853738149775855 0.02769164873749545 
0.02769164873749545 0.02769164873749545 0.02769164873749545 0.0882930955834242 0.0882930955834242 0.0882930955834242 0.0882930955834242 0.1204451921245954 0.1204451921245954 
0.1204451921245954 0.1204451921245954 0.06702164272742824 0.06702164272742824 0.06702164272742824 0.06702164272742824 0.08070596614664036 0.08070596614664036 0.08070596614664036 
0.08070596614664036 -0.1052886442679268 -0.1052886442679268 -0.1052886442679268 -0.1052886442679268 -0.2714233208031659 -0.2714233208031659 -0.2714233208031659 -0.2714233208031659 
-0.3623028608512671 -0.3623028608512671 -0.3623028608512671 -0.3623028608512671 -0.3251875890605716 -0.3251875890605716 -0.3251875890605716 -0.3251875890605716 -0.156727107505902 
-0.156727107505902 -0.156727107505902 -0.156727107505902 0.0929731835810715 0.0929731835810715 0.0929731835810715 0.0929731835810715 0.3238666023077844 0.3238666023077844 
0.3238666023077844 0.3238666023077844 0.4542806830802933 0.4542806830802933 0.4542806830802933 0.4542806830802933 0.310172944172321 0.310172944172321 0.310172944172321 
0.310172944172321 0.07047903252690335 0.07047903252690335 0.07047903252690335 0.07047903252690335 -0.1243077444636243 -0.1243077444636243 -0.1243077444636243 -0.1243077444636243 
-0.3650513434145585 -0.3650513434145585 -0.3650513434145585 -0.3650513434145585 -0.4901002651623874 -0.4901002651623874 -0.4901002651623874 -0.4901002651623874 -0.4418349476476188 
-0.4418349476476188 -0.4418349476476188 -0.4418349476476188 -0.216117497693062 -0.216117497693062 -0.216117497693062 -0.216117497693062 0.1218194968964059 0.1218194968964059 
0.1218194968964059 0.1218194968964059 0.4337845691981431 0.4337845691981431 0.4337845691981431 0.4337845691981431 0.6074810763777188 0.6074810763777188 0.6074810763777188 
0.6074810763777188 0.3853004054396705 0.3853004054396705 0.3853004054396705 0.3853004054396705 0.07061273611610186 0.07061273611610186 0.07061273611610186 0.07061273611610186 
-0.1041657463660556 -0.1041657463660556 -0.1041657463660556 -0.1041657463660556 -0.3109592113318499 -0.3109592113318499 -0.3109592113318499 -0.3109592113318499 -0.4200602467266464 
-0.4200602467266464 -0.4200602467266464 -0.4200602467266464 -0.3808227274420978 -0.3808227274420978 -0.3808227274420978 -0.3808227274420978 -0.1890880903228396 -0.1890880903228396 
-0.1890880903228396 -0.1890880903228396 0.09941087637625007 0.09941087637625007 0.09941087637625007 0.09941087637625007 0.3681061719228987 0.3681061719228987 0.3681061719228987 
0.3681061719228987 0.522796702125246 0.522796702125246 0.522796702125246 0.522796702125246 0.3178711157196002 0.3178711157196002 0.3178711157196002 0.3178711157196002 
0.03747448772764267 0.03747448772764267 0.03747448772764267 0.03747448772764267 -0.03835173371793513 -0.03835173371793513 -0.03835173371793513 -0.03835173371793513 -0.1263299970549431 
-0.1263299970549431 -0.1263299970549431 -0.1263299970549431 -0.1753538229440349 -0.1753538229440349 -0.1753538229440349 -0.1753538229440349 -0.1616062257162894 -0.1616062257162894 
-0.1616062257162894 -0.1616062257162894 -0.08332315846318844 -0.08332315846318844 -0.08332315846318844 -0.08332315846318844 0.03574073127270789 0.03574073127270789 0.03574073127270789 
0.03574073127270789 0.1494359410416938 0.1494359410416938 0.1494359410416938 0.1494359410416938 0.2177520864048645 0.2177520864048645 0.2177520864048645 0.2177520864048645 
0.1410595621382704 0.1410595621382704 0.1410595621382704 0.1410595621382704 -0.01576655058102531 -0.01576655058102531 -0.01576655058102531 -0.01576655058102531 0.04585602179499799 
0.04585602179499799 0.04585602179499799 0.04585602179499799 0.1173751155948588 0.1173751155948588 0.1173751155948588 0.1173751155948588 0.1529908726006845 0.1529908726006845 
0.1529908726006845 0.1529908726006845 0.133388277329399 0.133388277329399 0.133388277329399 0.133388277329399 0.05875860403033864 0.05875860403033864 0.05875860403033864 
0.05875860403033864 -0.04779582378231662 -0.04779582378231662 -0.04779582378231662 -0.04779582378231662 -0.1415060412350524 -0.1415060412350524 -0.1415060412350524 -0.1415060412350524 
-0.1917051266273563 -0.1917051266273563 -0.1917051266273563 -0.1917051266273563 -0.1106707273581544 -0.1106707273581544 -0.1106707273581544 -0.1106707273581544 -0.07000891465153153 
-0.07000891465153153 -0.07000891465153153 -0.07000891465153153 0.1148802134716908 0.1148802134716908 0.1148802134716908 0.1148802134716908 0.3111399537933861 0.3111399537933861 
0.3111399537933861 0.3111399537933861 0.4153196702215989 0.4153196702215989 0.4153196702215989 0.4153196702215989 0.3724901556572274 0.3724901556572274 0.3724901556572274 
0.3724901556572274 0.1779944891593812 0.1779944891593812 0.1779944891593812 0.1779944891593812 -0.1083480526855461 -0.1083480526855461 -0.1083480526855461 -0.1083480526855461 
-0.370641636529564 -0.370641636529564 -0.370641636529564 -0.370641636529564 -0.513079599764022 -0.513079599764022 -0.513079599764022 -0.513079599764022 -0.3216905916756385 
-0.3216905916756385 -0.3216905916756385 -0.3216905916756385 