Title = Result/Post/Linear_Advection_2D/FVM/MLP_u1_Least_Square/Sine_Wave_2D/Quad10/
FileType = Solution
Variables = q
Zone T = Result/Post/Linear_Advection_2D/FVM/MLP_u1_Least_Square/Sine_Wave_2D/Quad10/
ZoneType = FETriangle
Nodes = 400
Elements = 200
DataPacking = Block
StrandID = 15
SolutionTime = 1.4
-0.1084686783711782 -0.1084686783711782 -0.1084686783711782 -0.1084686783711782 -0.1241854774365048 -0.1241854774365048 -0.1241854774365048 -0.1241854774365048 -0.1148908263810045 -0.1148908263810045 
-0.1148908263810045 -0.1148908263810045 -0.06356718523465762 -0.06356718523465762 -0.06356718523465762 -0.06356718523465762 0.01794863340230138 0.01794863340230138 0.01794863340230138 
0.01794863340230138 0.09786791441839061 0.09786791441839061 0.09786791441839061 0.09786791441839061 0.1399063201850489 0.1399063201850489 0.1399063201850489 0.1399063201850489 
0.1305337036022463 0.1305337036022463 0.1305337036022463 0.1305337036022463 0.0737121652820391 0.0737121652820391 0.0737121652820391 0.0737121652820391 -0.05956597341349795 
-0.05956597341349795 -0.05956597341349795 -0.05956597341349795 -0.05516338398901444 -0.05516338398901444 -0.05516338398901444 -0.05516338398901444 -0.0655146157198471 -0.0655146157198471 
-0.0655146157198471 -0.0655146157198471 -0.06162233311879833 -0.06162233311879833 -0.06162233311879833 -0.06162233311879833 -0.03591313281381081 -0.03591313281381081 -0.03591313281381081 
-0.03591313281381081 0.005997599951557732 0.005997599951557732 0.005997599951557732 0.005997599951557732 0.04792252767208677 0.04792252767208677 0.04792252767208677 0.04792252767208677 
0.07052879848540661 0.07052879848540661 0.07052879848540661 0.07052879848540661 0.06707213501312018 0.06707213501312018 0.06707213501312018 0.06707213501312018 0.03934551547486452 
0.03934551547486452 0.03934551547486452 0.03934551547486452 -0.0226003345656467 -0.0226003345656467 -0.0226003345656467 -0.0226003345656467 0.03645021051666611 0.03645021051666611 
0.03645021051666611 0.03645021051666611 0.03795080988269787 0.03795080988269787 0.03795080988269787 0.03795080988269787 0.0307435680365121 0.0307435680365121 0.0307435680365121 
0.0307435680365121 0.0121918616149793 0.0121918616149793 0.0121918616149793 0.0121918616149793 -0.0119825169153664 -0.0119825169153664 -0.0119825169153664 -0.0119825169153664 
-0.03328417319706023 -0.03328417319706023 -0.03328417319706023 -0.03328417319706023 -0.04451130685095699 -0.04451130685095699 -0.04451130685095699 -0.04451130685095699 -0.03907511311075505 
-0.03907511311075505 -0.03907511311075505 -0.03907511311075505 -0.01622033959947503 -0.01622033959947503 -0.01622033959947503 -0.01622033959947503 0.02522122753862696 0.02522122753862696 
0.02522122753862696 0.02522122753862696 0.1181313252754192 0.1181313252754192 0.1181313252754192 0.1181313252754192 0.1327494313053856 0.1327494313053856 0.1327494313053856 
0.1327494313053856 0.1166902450256253 0.1166902450256253 0.1166902450256253 0.1166902450256253 0.05763498411627919 0.05763498411627919 0.05763498411627919 0.05763498411627919 
-0.02742731866016912 -0.02742731866016912 -0.02742731866016912 -0.02742731866016912 -0.1073366038367336 -0.1073366038367336 -0.1073366038367336 -0.1073366038367336 -0.1497513677002048 
-0.1497513677002048 -0.1497513677002048 -0.1497513677002048 -0.1369434129105028 -0.1369434129105028 -0.1369434129105028 -0.1369434129105028 -0.06868369432316368 -0.06868369432316368 
-0.06868369432316368 -0.06868369432316368 0.06636549330910264 0.06636549330910264 0.06636549330910264 0.06636549330910264 0.1576030878204824 0.1576030878204824 0.1576030878204824 
0.1576030878204824 0.1796156407984473 0.1796156407984473 0.1796156407984473 0.1796156407984473 0.1605656368669443 0.1605656368669443 0.1605656368669443 0.1605656368669443 
0.08172652315009181 0.08172652315009181 0.08172652315009181 0.08172652315009181 -0.03429472268029554 -0.03429472268029554 -0.03429472268029554 -0.03429472268029554 -0.1441064924921437 
-0.1441064924921437 -0.1441064924921437 -0.1441064924921437 -0.2022147548528839 -0.2022147548528839 -0.2022147548528839 -0.2022147548528839 -0.1863764032632839 -0.1863764032632839 
-0.1863764032632839 -0.1863764032632839 -0.09643704115834735 -0.09643704115834735 -0.09643704115834735 -0.09643704115834735 0.0847379881021928 0.0847379881021928 0.0847379881021928 
0.0847379881021928 0.1394809825021821 0.1394809825021821 0.1394809825021821 0.1394809825021821 0.1607188854182729 0.1607188854182729 0.1607188854182729 0.1607188854182729 
0.1450376536592229 0.1450376536592229 0.1450376536592229 0.1450376536592229 0.07539190115381593 0.07539190115381593 0.07539190115381593 0.07539190115381593 -0.02849448280938899 
-0.02849448280938899 -0.02849448280938899 -0.02849448280938899 -0.1275384278733394 -0.1275384278733394 -0.1275384278733394 -0.1275384278733394 -0.1812403723496201 -0.1812403723496201 
-0.1812403723496201 -0.1812403723496201 -0.1676719378654639 -0.1676719378654639 -0.1676719378654639 -0.1676719378654639 -0.08811085747190846 -0.08811085747190846 -0.08811085747190846 
-0.08811085747190846 0.07206518676398596 0.07206518676398596 0.07206518676398596 0.07206518676398596 0.06482431221967755 0.06482431221967755 0.06482431221967755 0.06482431221967755 
0.07683813334961073 0.07683813334961073 0.07683813334961073 0.07683813334961073 0.0710387525776211 0.0710387525776211 0.0710387525776211 0.0710387525776211 0.03914151323550716 
0.03914151323550716 0.03914151323550716 0.03914151323550716 -0.009693786339698024 -0.009693786339698024 -0.009693786339698024 -0.009693786339698024 -0.057286927570507 -0.057286927570507 
-0.057286927570507 -0.057286927570507 -0.08471961321452638 -0.08471961321452638 -0.08471961321452638 -0.08471961321452638 -0.08020079876427949 -0.08020079876427949 -0.08020079876427949 
-0.08020079876427949 -0.04426253837741713 -0.04426253837741713 -0.04426253837741713 -0.04426253837741713 0.02997258365879541 0.02997258365879541 0.02997258365879541 0.02997258365879541 
-0.04233086832171867 -0.04233086832171867 -0.04233086832171867 -0.04233086832171867 -0.04571776746666527 -0.04571776746666527 -0.04571776746666527 -0.04571776746666527 -0.03839591785201479 
-0.03839591785201479 -0.03839591785201479 -0.03839591785201479 -0.01612903856230456 -0.01612903856230456 -0.01612903856230456 -0.01612903856230456 0.01492449491614443 0.01492449491614443 
0.01492449491614443 0.01492449491614443 0.04291586467682697 0.04291586467682697 0.04291586467682697 0.04291586467682697 0.05568259183441127 0.05568259183441127 0.05568259183441127 
0.05568259183441127 0.04763404337469611 0.04763404337469611 0.04763404337469611 0.04763404337469611 0.02074384194583424 0.02074384194583424 0.02074384194583424 0.02074384194583424 
-0.02791112367768604 -0.02791112367768604 -0.02791112367768604 -0.02791112367768604 -0.148428274297865 -0.148428274297865 -0.148428274297865 -0.148428274297865 -0.1665229617136885 
-0.1665229617136885 -0.1665229617136885 -0.1665229617136885 -0.1446668470385364 -0.1446668470385364 -0.1446668470385364 -0.1446668470385364 -0.06873741134266551 -0.06873741134266551 
-0.06873741134266551 -0.06873741134266551 0.03953206029341723 0.03953206029341723 0.03953206029341723 0.03953206029341723 0.1404789193852047 0.1404789193852047 0.1404789193852047 
0.1404789193852047 0.1888636950465142 0.1888636950465142 0.1888636950465142 0.1888636950465142 0.1675026096670408 0.1675026096670408 0.1675026096670408 0.1675026096670408 
0.08045206834990704 0.08045206834990704 0.08045206834990704 0.08045206834990704 -0.08076030958802141 -0.08076030958802141 -0.08076030958802141 -0.08076030958802141 -0.1604541973741536 
-0.1604541973741536 -0.1604541973741536 -0.1604541973741536 -0.1838554431123796 -0.1838554431123796 -0.1838554431123796 -0.1838554431123796 -0.1648735582537632 -0.1648735582537632 
-0.1648735582537632 -0.1648735582537632 -0.08385185408047641 -0.08385185408047641 -0.08385185408047641 -0.08385185408047641 0.03617657516641262 0.03617657516641262 0.03617657516641262 
0.03617657516641262 0.149882292167321 0.149882292167321 0.149882292167321 0.149882292167321 0.2072922740063194 0.2072922740063194 0.2072922740063194 0.2072922740063194 
0.1886046312078487 0.1886046312078487 0.1886046312078487 0.1886046312078487 0.09594058317233004 0.09594058317233004 0.09594058317233004 0.09594058317233004 -0.08835727868204096 
-0.08835727868204096 -0.08835727868204096 -0.08835727868204096 