Title = Result/Post/Linear_Advection_2D/FVM/MLP_u1_Least_Square/Sine_Wave_2D/Quad10/
FileType = Solution
Variables = q
Zone T = Result/Post/Linear_Advection_2D/FVM/MLP_u1_Least_Square/Sine_Wave_2D/Quad10/
ZoneType = FETriangle
Nodes = 400
Elements = 200
DataPacking = Block
StrandID = 9
SolutionTime = 0.8
-0.2962331815378666 -0.2962331815378666 -0.2962331815378666 -0.2962331815378666 -0.2562235475256226 -0.2562235475256226 -0.2562235475256226 -0.2562235475256226 -0.1201681164131213 -0.1201681164131213 
-0.1201681164131213 -0.1201681164131213 0.06754517674888955 0.06754517674888955 0.06754517674888955 0.06754517674888955 0.2388574700860418 0.2388574700860418 0.2388574700860418 
0.2388574700860418 0.3250502872444551 0.3250502872444551 0.3250502872444551 0.3250502872444551 0.2922902550273584 0.2922902550273584 0.2922902550273584 0.2922902550273584 
0.1432099934184315 0.1432099934184315 0.1432099934184315 0.1432099934184315 -0.09052098649774221 -0.09052098649774221 -0.09052098649774221 -0.09052098649774221 -0.3007990241973812 
-0.3007990241973812 -0.3007990241973812 -0.3007990241973812 -0.3342234130267064 -0.3342234130267064 -0.3342234130267064 -0.3342234130267064 -0.2877685464099309 -0.2877685464099309 
-0.2877685464099309 -0.2877685464099309 -0.1394306814999437 -0.1394306814999437 -0.1394306814999437 -0.1394306814999437 0.06986347028675266 0.06986347028675266 0.06986347028675266 
0.06986347028675266 0.2636548463824945 0.2636548463824945 0.2636548463824945 0.2636548463824945 0.3631427653634126 0.3631427653634126 0.3631427653634126 0.3631427653634126 
0.330257664481549 0.330257664481549 0.330257664481549 0.330257664481549 0.1664157974994671 0.1664157974994671 0.1664157974994671 0.1664157974994671 -0.09478511694605032 
-0.09478511694605032 -0.09478511694605032 -0.09478511694605032 -0.3359241946346109 -0.3359241946346109 -0.3359241946346109 -0.3359241946346109 -0.2971195212167289 -0.2971195212167289 
-0.2971195212167289 -0.2971195212167289 -0.2551964548229034 -0.2551964548229034 -0.2551964548229034 -0.2551964548229034 -0.1246169997627009 -0.1246169997627009 -0.1246169997627009 
-0.1246169997627009 0.05950679091894666 0.05950679091894666 0.05950679091894666 0.05950679091894666 0.2304577607958146 0.2304577607958146 0.2304577607958146 0.2304577607958146 
0.3208414952155546 0.3208414952155546 0.3208414952155546 0.3208414952155546 0.2918989604990837 0.2918989604990837 0.2918989604990837 0.2918989604990837 0.1482898717504224 
0.1482898717504224 0.1482898717504224 0.1482898717504224 -0.07921406542340503 -0.07921406542340503 -0.07921406542340503 -0.07921406542340503 -0.2909551302957638 -0.2909551302957638 
-0.2909551302957638 -0.2909551302957638 -0.1491012494443996 -0.1491012494443996 -0.1491012494443996 -0.1491012494443996 -0.1290791000566527 -0.1290791000566527 -0.1290791000566527 
-0.1290791000566527 -0.06479611779561859 -0.06479611779561859 -0.06479611779561859 -0.06479611779561859 0.02644015436956522 0.02644015436956522 0.02644015436956522 0.02644015436956522 
0.1115414564313089 0.1115414564313089 0.1115414564313089 0.1115414564313089 0.1573690243657897 0.1573690243657897 0.1573690243657897 0.1573690243657897 0.1443087300097292 
0.1443087300097292 0.1443087300097292 0.1443087300097292 0.07468977033939662 0.07468977033939662 0.07468977033939662 0.07468977033939662 -0.03505222084870342 -0.03505222084870342 
-0.03505222084870342 -0.03505222084870342 -0.1389476379253771 -0.1389476379253771 -0.1389476379253771 -0.1389476379253771 0.08264748580284609 0.08264748580284609 0.08264748580284609 
0.08264748580284609 0.0704905952890154 0.0704905952890154 0.0704905952890154 0.0704905952890154 0.03109723649433105 0.03109723649433105 0.03109723649433105 0.03109723649433105 
-0.02087202648818291 -0.02087202648818291 -0.02087202648818291 -0.02087202648818291 -0.06586516000476414 -0.06586516000476414 -0.06586516000476414 -0.06586516000476414 -0.08729418872855019 
-0.08729418872855019 -0.08729418872855019 -0.08729418872855019 -0.07577108219903106 -0.07577108219903106 -0.07577108219903106 -0.07577108219903106 -0.03403248596699835 -0.03403248596699835 
-0.03403248596699835 -0.03403248596699835 0.02927114825861715 0.02927114825861715 0.02927114825861715 0.02927114825861715 0.08535788414237851 0.08535788414237851 0.08535788414237851 
0.08535788414237851 0.2995305632421102 0.2995305632421102 0.2995305632421102 0.2995305632421102 0.2547717587295568 0.2547717587295568 0.2547717587295568 0.2547717587295568 
0.1193076763658496 0.1193076763658496 0.1193076763658496 0.1193076763658496 -0.06670610053189337 -0.06670610053189337 -0.06670610053189337 -0.06670610053189337 -0.2349823689022695 
-0.2349823689022695 -0.2349823689022695 -0.2349823689022695 -0.3179511114907316 -0.3179511114907316 -0.3179511114907316 -0.3179511114907316 -0.2838087139788499 -0.2838087139788499 
-0.2838087139788499 -0.2838087139788499 -0.1369574102392863 -0.1369574102392863 -0.1369574102392863 -0.1369574102392863 0.08953622426830943 0.08953622426830943 0.08953622426830943 
0.08953622426830943 0.2950689601567843 0.2950689601567843 0.2950689601567843 0.2950689601567843 0.3959395814417238 0.3959395814417238 0.3959395814417238 0.3959395814417238 
0.3372945526206217 0.3372945526206217 0.3372945526206217 0.3372945526206217 0.1587629428748752 0.1587629428748752 0.1587629428748752 0.1587629428748752 -0.08989721640869498 
-0.08989721640869498 -0.08989721640869498 -0.08989721640869498 -0.3153390205263676 -0.3153390205263676 -0.3153390205263676 -0.3153390205263676 -0.4273976621629437 -0.4273976621629437 
-0.4273976621629437 -0.4273976621629437 -0.3848259027959801 -0.3848259027959801 -0.3848259027959801 -0.3848259027959801 -0.18890404701381 -0.18890404701381 -0.18890404701381 
-0.18890404701381 0.1150364659079018 0.1150364659079018 0.1150364659079018 0.1150364659079018 0.3901262843118566 0.3901262843118566 0.3901262843118566 0.3901262843118566 
0.3401450849029634 0.3401450849029634 0.3401450849029634 0.3401450849029634 0.2907758988323741 0.2907758988323741 0.2907758988323741 0.2907758988323741 0.138455792182427 
0.138455792182427 0.138455792182427 0.138455792182427 -0.07454430274455191 -0.07454430274455191 -0.07454430274455191 -0.07454430274455191 -0.2694042128529192 -0.2694042128529192 
-0.2694042128529192 -0.2694042128529192 -0.3698117836234165 -0.3698117836234165 -0.3698117836234165 -0.3698117836234165 -0.3337684497267658 -0.3337684497267658 -0.3337684497267658 
-0.3337684497267658 -0.1663900022404887 -0.1663900022404887 -0.1663900022404887 -0.1663900022404887 0.09356764856533541 0.09356764856533541 0.09356764856533541 0.09356764856533541 
0.331122807788165 0.331122807788165 0.331122807788165 0.331122807788165 0.1487736278647722 0.1487736278647722 0.1487736278647722 0.1487736278647722 0.1268714207045731 
0.1268714207045731 0.1268714207045731 0.1268714207045731 0.06356293875039698 0.06356293875039698 0.06356293875039698 0.06356293875039698 -0.02715013825672194 -0.02715013825672194 
-0.02715013825672194 -0.02715013825672194 -0.1119508207737591 -0.1119508207737591 -0.1119508207737591 -0.1119508207737591 -0.1575299826142846 -0.1575299826142846 -0.1575299826142846 
-0.1575299826142846 -0.1447087848798255 -0.1447087848798255 -0.1447087848798255 -0.1447087848798255 -0.07555250136817389 -0.07555250136817389 -0.07555250136817389 -0.07555250136817389 
0.03287060383485566 0.03287060383485566 0.03287060383485566 0.03287060383485566 0.1351011188293173 0.1351011188293173 0.1351011188293173 0.1351011188293173 -0.1823942162100021 
-0.1823942162100021 -0.1823942162100021 -0.1823942162100021 -0.144280530364011 -0.144280530364011 -0.144280530364011 -0.144280530364011 -0.05979353419387118 -0.05979353419387118 
-0.05979353419387118 -0.05979353419387118 0.04966429355902106 0.04966429355902106 0.04966429355902106 0.04966429355902106 0.1449792561783456 0.1449792561783456 0.1449792561783456 
0.1449792561783456 0.1891994818064538 0.1891994818064538 0.1891994818064538 0.1891994818064538 0.1634202129814341 0.1634202129814341 0.1634202129814341 0.1634202129814341 
0.07086751112192388 0.07086751112192388 0.07086751112192388 0.07086751112192388 -0.06179292801563721 -0.06179292801563721 -0.06179292801563721 -0.06179292801563721 -0.1694168074595813 
-0.1694168074595813 -0.1694168074595813 -0.1694168074595813 