Title = Result/Post/Linear_Advection_2D/FVM/MLP_u1_Least_Square/Sine_Wave_2D/Quad10/
FileType = Solution
Variables = q
Zone T = Result/Post/Linear_Advection_2D/FVM/MLP_u1_Least_Square/Sine_Wave_2D/Quad10/
ZoneType = FETriangle
Nodes = 400
Elements = 200
DataPacking = Block
StrandID = 21
SolutionTime = 2
0.01806131800539045 0.01806131800539045 0.01806131800539045 0.01806131800539045 0.02986909091473706 0.02986909091473706 0.02986909091473706 0.02986909091473706 0.0371758772792287 0.0371758772792287 
0.0371758772792287 0.0371758772792287 0.03531064865048181 0.03531064865048181 0.03531064865048181 0.03531064865048181 0.01545438641957589 0.01545438641957589 0.01545438641957589 
0.01545438641957589 -0.0109607732558903 -0.0109607732558903 -0.0109607732558903 -0.0109607732558903 -0.03218931626452877 -0.03218931626452877 -0.03218931626452877 -0.03218931626452877 
-0.0417289026584543 -0.0417289026584543 -0.0417289026584543 -0.0417289026584543 -0.03747719067717695 -0.03747719067717695 -0.03747719067717695 -0.03747719067717695 -0.004482409938221982 
-0.004482409938221982 -0.004482409938221982 -0.004482409938221982 0.02841632172152059 0.02841632172152059 0.02841632172152059 0.02841632172152059 0.04844879276469339 0.04844879276469339 
0.04844879276469339 0.04844879276469339 0.06471122167389626 0.06471122167389626 0.06471122167389626 0.06471122167389626 0.06011774019143049 0.06011774019143049 0.06011774019143049 
0.06011774019143049 0.03013493266407876 0.03013493266407876 0.03013493266407876 0.03013493266407876 -0.01381736626090503 -0.01381736626090503 -0.01381736626090503 -0.01381736626090503 
-0.05461854563614322 -0.05461854563614322 -0.05461854563614322 -0.05461854563614322 -0.07560178929169507 -0.07560178929169507 -0.07560178929169507 -0.07560178929169507 -0.07283600910625074 
-0.07283600910625074 -0.07283600910625074 -0.07283600910625074 -0.0110559978328484 -0.0110559978328484 -0.0110559978328484 -0.0110559978328484 0.03320349943122192 0.03320349943122192 
0.03320349943122192 0.03320349943122192 0.06187968818439199 0.06187968818439199 0.06187968818439199 0.06187968818439199 0.084245571032149 0.084245571032149 0.084245571032149 
0.084245571032149 0.07864865238493218 0.07864865238493218 0.07864865238493218 0.07864865238493218 0.04173610794102293 0.04173610794102293 0.04173610794102293 0.04173610794102293 
-0.01519986318781472 -0.01519986318781472 -0.01519986318781472 -0.01519986318781472 -0.0700500819632464 -0.0700500819632464 -0.0700500819632464 -0.0700500819632464 -0.09964884067877969 
-0.09964884067877969 -0.09964884067877969 -0.09964884067877969 -0.09654957280533755 -0.09654957280533755 -0.09654957280533755 -0.09654957280533755 -0.02066851112397898 -0.02066851112397898 
-0.02066851112397898 -0.02066851112397898 0.02682953650459215 0.02682953650459215 0.02682953650459215 0.02682953650459215 0.05355108043053457 0.05355108043053457 0.05355108043053457 
0.05355108043053457 0.07511838002677018 0.07511838002677018 0.07511838002677018 0.07511838002677018 0.07107379176235669 0.07107379176235669 0.07107379176235669 0.07107379176235669 
0.0389212608252996 0.0389212608252996 0.0389212608252996 0.0389212608252996 -0.01147259870495856 -0.01147259870495856 -0.01147259870495856 -0.01147259870495856 -0.06108754643887489 
-0.06108754643887489 -0.06108754643887489 -0.06108754643887489 -0.08928842377566945 -0.08928842377566945 -0.08928842377566945 -0.08928842377566945 -0.08771194054216577 -0.08771194054216577 
-0.08771194054216577 -0.08771194054216577 -0.02184306494067943 -0.02184306494067943 -0.02184306494067943 -0.02184306494067943 0.009684728537615303 0.009684728537615303 0.009684728537615303 
0.009684728537615303 0.02347350360980033 0.02347350360980033 0.02347350360980033 0.02347350360980033 0.03536165225028359 0.03536165225028359 0.03536165225028359 0.03536165225028359 
0.03493103562250255 0.03493103562250255 0.03493103562250255 0.03493103562250255 0.02070934060329885 0.02070934060329885 0.02070934060329885 0.02070934060329885 -0.003021458825081709 
-0.003021458825081709 -0.003021458825081709 -0.003021458825081709 -0.02747103276503703 -0.02747103276503703 -0.02747103276503703 -0.02747103276503703 -0.04277299125800609 -0.04277299125800609 
-0.04277299125800609 -0.04277299125800609 -0.04378069601280227 -0.04378069601280227 -0.04378069601280227 -0.04378069601280227 -0.01395496338967334 -0.01395496338967334 -0.01395496338967334 
-0.01395496338967334 -0.0119166914560602 -0.0119166914560602 -0.0119166914560602 -0.0119166914560602 -0.01789037991216439 -0.01789037991216439 -0.01789037991216439 -0.01789037991216439 
-0.02146316991002066 -0.02146316991002066 -0.02146316991002066 -0.02146316991002066 -0.01782588879952444 -0.01782588879952444 -0.01782588879952444 -0.01782588879952444 -0.007135461034398709 
-0.007135461034398709 -0.007135461034398709 -0.007135461034398709 0.007146276237195618 0.007146276237195618 0.007146276237195618 0.007146276237195618 0.01937929739985027 0.01937929739985027 
0.01937929739985027 0.01937929739985027 0.02437206771558967 0.02437206771558967 0.02437206771558967 0.02437206771558967 0.02132425395636542 0.02132425395636542 0.02132425395636542 
0.02132425395636542 -0.0001469382995561893 -0.0001469382995561893 -0.0001469382995561893 -0.0001469382995561893 -0.03069887887006548 -0.03069887887006548 -0.03069887887006548 -0.03069887887006548 
-0.05494753019707944 -0.05494753019707944 -0.05494753019707944 -0.05494753019707944 -0.07338969120694488 -0.07338969120694488 -0.07338969120694488 -0.07338969120694488 -0.06710930312661194 
-0.06710930312661194 -0.06710930312661194 -0.06710930312661194 -0.03407992374690369 -0.03407992374690369 -0.03407992374690369 -0.03407992374690369 0.01509522723990574 0.01509522723990574 
0.01509522723990574 0.01509522723990574 0.06156440100588993 0.06156440100588993 0.06156440100588993 0.06156440100588993 0.08579480779522491 0.08579480779522491 0.08579480779522491 
0.08579480779522491 0.08174146025623831 0.08174146025623831 0.08174146025623831 0.08174146025623831 0.01541085003746594 0.01541085003746594 0.01541085003746594 0.01541085003746594 
-0.0379905108869004 -0.0379905108869004 -0.0379905108869004 -0.0379905108869004 -0.07196656968384986 -0.07196656968384986 -0.07196656968384986 -0.07196656968384986 -0.09880768890725139 
-0.09880768890725139 -0.09880768890725139 -0.09880768890725139 -0.09226987190757652 -0.09226987190757652 -0.09226987190757652 -0.09226987190757652 -0.04906602720052095 -0.04906602720052095 
-0.04906602720052095 -0.04906602720052095 0.01759441983023138 0.01759441983023138 0.01759441983023138 0.01759441983023138 0.08166277043301719 0.08166277043301719 0.08166277043301719 
0.08166277043301719 0.1160686200525083 0.1160686200525083 0.1160686200525083 0.1160686200525083 0.1114102063515681 0.1114102063515681 0.1114102063515681 0.1114102063515681 
0.02456230373814112 0.02456230373814112 0.02456230373814112 0.02456230373814112 -0.03188910394202984 -0.03188910394202984 -0.03188910394202984 -0.03188910394202984 -0.06516384648866223 
-0.06516384648866223 -0.06516384648866223 -0.06516384648866223 -0.08974232425682016 -0.08974232425682016 -0.08974232425682016 -0.08974232425682016 -0.0840791583035061 -0.0840791583035061 
-0.0840791583035061 -0.0840791583035061 -0.04533506117072323 -0.04533506117072323 -0.04533506117072323 -0.04533506117072323 0.01472081383967687 0.01472081383967687 0.01472081383967687 
0.01472081383967687 0.0732073184202286 0.0732073184202286 0.0732073184202286 0.0732073184202286 0.1049309775672972 0.1049309775672972 0.1049309775672972 0.1049309775672972 
0.1007940057589536 0.1007940057589536 0.1007940057589536 0.1007940057589536 0.02636005503451399 0.02636005503451399 0.02636005503451399 0.02636005503451399 -0.001727040211737722 
-0.001727040211737722 -0.001727040211737722 -0.001727040211737722 -0.006702319739557431 -0.006702319739557431 -0.006702319739557431 -0.006702319739557431 -0.01467689213415563 -0.01467689213415563 
-0.01467689213415563 -0.01467689213415563 -0.01806712360179927 -0.01806712360179927 -0.01806712360179927 -0.01806712360179927 -0.01344216426775912 -0.01344216426775912 -0.01344216426775912 
-0.01344216426775912 -0.003667053822881013 -0.003667053822881013 -0.003667053822881013 -0.003667053822881013 0.01058097254643052 0.01058097254643052 0.01058097254643052 0.01058097254643052 
0.01941053840311732 0.01941053840311732 0.01941053840311732 0.01941053840311732 0.02240310237770893 0.02240310237770893 0.02240310237770893 0.02240310237770893 0.007883594990361287 
0.007883594990361287 0.007883594990361287 0.007883594990361287 