Title = Result/Post/Linear_Advection_2D/FVM/MLP_u1_Least_Square/Sine_Wave_2D/Quad10/
FileType = Solution
Variables = q
Zone T = Result/Post/Linear_Advection_2D/FVM/MLP_u1_Least_Square/Sine_Wave_2D/Quad10/
ZoneType = FETriangle
Nodes = 400
Elements = 200
DataPacking = Block
StrandID = 2
SolutionTime = 0.1
-0.005916300818319229 -0.005916300818319229 -0.005916300818319229 -0.005916300818319229 0.008026648479616436 0.008026648479616436 0.008026648479616436 0.008026648479616436 0.02364724161023867 0.02364724161023867 
0.02364724161023867 0.02364724161023867 0.02231135897341589 0.02231135897341589 0.02231135897341589 0.02231135897341589 0.01926032100786811 0.01926032100786811 0.01926032100786811 
0.01926032100786811 0.007036348508583313 0.007036348508583313 0.007036348508583313 0.007036348508583313 -0.010135402816286 -0.010135402816286 -0.010135402816286 -0.010135402816286 
-0.02180718762872697 -0.02180718762872697 -0.02180718762872697 -0.02180718762872697 -0.02376191846931903 -0.02376191846931903 -0.02376191846931903 -0.02376191846931903 -0.019072973258069 
-0.019072973258069 -0.019072973258069 -0.019072973258069 -0.09614483103314572 -0.09614483103314572 -0.09614483103314572 -0.09614483103314572 0.073176041459969 0.073176041459969 
0.073176041459969 0.073176041459969 0.3312661541955139 0.3312661541955139 0.3312661541955139 0.3312661541955139 0.4465160313552373 0.4465160313552373 0.4465160313552373 
0.4465160313552373 0.3728134950019744 0.3728134950019744 0.3728134950019744 0.3728134950019744 0.1453721701933053 0.1453721701933053 0.1453721701933053 0.1453721701933053 
-0.1383557865017889 -0.1383557865017889 -0.1383557865017889 -0.1383557865017889 -0.3693048424297565 -0.3693048424297565 -0.3693048424297565 -0.3693048424297565 -0.4679309631770469 
-0.4679309631770469 -0.4679309631770469 -0.4679309631770469 -0.2969986105012954 -0.2969986105012954 -0.2969986105012954 -0.2969986105012954 -0.1917303574509154 -0.1917303574509154 
-0.1917303574509154 -0.1917303574509154 0.1536650739428477 0.1536650739428477 0.1536650739428477 0.1536650739428477 0.624666896813727 0.624666896813727 0.624666896813727 
0.624666896813727 0.8349104922514965 0.8349104922514965 0.8349104922514965 0.8349104922514965 0.7006929985678947 0.7006929985678947 0.7006929985678947 0.7006929985678947 
0.2742193254802936 0.2742193254802936 0.2742193254802936 0.2742193254802936 -0.2596441058869539 -0.2596441058869539 -0.2596441058869539 -0.2596441058869539 -0.6975745444610606 
-0.6975745444610606 -0.6975745444610606 -0.6975745444610606 -0.8674684978347238 -0.8674684978347238 -0.8674684978347238 -0.8674684978347238 -0.5750812145159139 -0.5750812145159139 
-0.5750812145159139 -0.5750812145159139 -0.1968759371417224 -0.1968759371417224 -0.1968759371417224 -0.1968759371417224 0.1574020436077009 0.1574020436077009 0.1574020436077009 
0.1574020436077009 0.6400073772867014 0.6400073772867014 0.6400073772867014 0.6400073772867014 0.8602277600072817 0.8602277600072817 0.8602277600072817 0.8602277600072817 
0.7256471714623906 0.7256471714623906 0.7256471714623906 0.7256471714623906 0.2868443592486652 0.2868443592486652 0.2868443592486652 0.2868443592486652 -0.2659667788098108 
-0.2659667788098108 -0.2659667788098108 -0.2659667788098108 -0.7171644763378391 -0.7171644763378391 -0.7171644763378391 -0.7171644763378391 -0.8920147935228793 -0.8920147935228793 
-0.8920147935228793 -0.8920147935228793 -0.5927931722710474 -0.5927931722710474 -0.5927931722710474 -0.5927931722710474 -0.1231323246550704 -0.1231323246550704 -0.1231323246550704 
-0.1231323246550704 0.09619606786662355 0.09619606786662355 0.09619606786662355 0.09619606786662355 0.3966439038350287 0.3966439038350287 0.3966439038350287 0.3966439038350287 
0.5433145068446984 0.5433145068446984 0.5433145068446984 0.5433145068446984 0.4553770346429871 0.4553770346429871 0.4553770346429871 0.4553770346429871 0.1805745723344605 
0.1805745723344605 0.1805745723344605 0.1805745723344605 -0.1648593865829562 -0.1648593865829562 -0.1648593865829562 -0.1648593865829562 -0.4477856448243685 -0.4477856448243685 
-0.4477856448243685 -0.4477856448243685 -0.5641999792335327 -0.5641999792335327 -0.5641999792335327 -0.5641999792335327 -0.3736735887800609 -0.3736735887800609 -0.3736735887800609 
-0.3736735887800609 -0.001091133177876227 -0.001091133177876227 -0.001091133177876227 -0.001091133177876227 -0.0007065535551185192 -0.0007065535551185192 -0.0007065535551185192 -0.0007065535551185192 
-0.001141216467293316 -0.001141216467293316 -0.001141216467293316 -0.001141216467293316 0.00614821496991344 0.00614821496991344 0.00614821496991344 0.00614821496991344 0.006077405555337441 
0.006077405555337441 0.006077405555337441 0.006077405555337441 0.003833220111264054 0.003833220111264054 0.003833220111264054 0.003833220111264054 0.001055449087158771 0.001055449087158771 
0.001055449087158771 0.001055449087158771 -0.002949720541859176 -0.002949720541859176 -0.002949720541859176 -0.002949720541859176 -0.005000826688678646 -0.005000826688678646 -0.005000826688678646 
-0.005000826688678646 -0.006657204238111438 -0.006657204238111438 -0.006657204238111438 -0.006657204238111438 0.1207245260404641 0.1207245260404641 0.1207245260404641 0.1207245260404641 
-0.0967525313531703 -0.0967525313531703 -0.0967525313531703 -0.0967525313531703 -0.397116890821301 -0.397116890821301 -0.397116890821301 -0.397116890821301 -0.5328425170571092 
-0.5328425170571092 -0.5328425170571092 -0.5328425170571092 -0.4455206510677061 -0.4455206510677061 -0.4455206510677061 -0.4455206510677061 -0.1737782449446785 -0.1737782449446785 
-0.1737782449446785 -0.1737782449446785 0.1664001487162316 0.1664001487162316 0.1664001487162316 0.1664001487162316 0.4415822576305411 0.4415822576305411 0.4415822576305411 
0.4415822576305411 0.5554317205769961 0.5554317205769961 0.5554317205769961 0.5554317205769961 0.3615576292897578 0.3615576292897578 0.3615576292897578 0.3615576292897578 
0.1994643777634249 0.1994643777634249 0.1994643777634249 0.1994643777634249 -0.1571695312975181 -0.1571695312975181 -0.1571695312975181 -0.1571695312975181 -0.6448993099236127 
-0.6448993099236127 -0.6448993099236127 -0.6448993099236127 -0.8651435689244622 -0.8651435689244622 -0.8651435689244622 -0.8651435689244622 -0.7266545264405161 -0.7266545264405161 
-0.7266545264405161 -0.7266545264405161 -0.2856200696564146 -0.2856200696564146 -0.2856200696564146 -0.2856200696564146 0.2676618705388171 0.2676618705388171 0.2676618705388171 
0.2676618705388171 0.7210057942901307 0.7210057942901307 0.7210057942901307 0.7210057942901307 0.8984304285803266 0.8984304285803266 0.8984304285803266 0.8984304285803266 
0.5952933404498806 0.5952933404498806 0.5952933404498806 0.5952933404498806 0.1981598187580394 0.1981598187580394 0.1981598187580394 0.1981598187580394 -0.160991685194443 
-0.160991685194443 -0.160991685194443 -0.160991685194443 -0.6448700305451915 -0.6448700305451915 -0.6448700305451915 -0.6448700305451915 -0.8654145654477738 -0.8654145654477738 
-0.8654145654477738 -0.8654145654477738 -0.7283404014508508 -0.7283404014508508 -0.7283404014508508 -0.7283404014508508 -0.2871959245470585 -0.2871959245470585 -0.2871959245470585 
-0.2871959245470585 0.268268746394639 0.268268746394639 0.268268746394639 0.268268746394639 0.7216434126012221 0.7216434126012221 0.7216434126012221 0.7216434126012221 
0.8966117896709656 0.8966117896709656 0.8966117896709656 0.8966117896709656 0.5964150584279355 0.5964150584279355 0.5964150584279355 0.5964150584279355 0.09828560531988002 
0.09828560531988002 0.09828560531988002 0.09828560531988002 -0.07268662176484633 -0.07268662176484633 -0.07268662176484633 -0.07268662176484633 -0.3289539335169526 -0.3289539335169526 
-0.3289539335169526 -0.3289539335169526 -0.4505078566467538 -0.4505078566467538 -0.4505078566467538 -0.4505078566467538 -0.3788741967532173 -0.3788741967532173 -0.3788741967532173 
-0.3788741967532173 -0.1514198715144192 -0.1514198715144192 -0.1514198715144192 -0.1514198715144192 0.1351192038532971 0.1351192038532971 0.1351192038532971 0.1351192038532971 
0.3733759760025852 0.3733759760025852 0.3733759760025852 0.3733759760025852 0.468438894774011 0.468438894774011 0.468438894774011 0.468438894774011 0.3108929180982086 
0.3108929180982086 0.3108929180982086 0.3108929180982086 