Title = Result/Post/Linear_Advection_2D/FVM/MLP_u1_Least_Square/Sine_Wave_2D/Quad10/
FileType = Solution
Variables = q
Zone T = Result/Post/Linear_Advection_2D/FVM/MLP_u1_Least_Square/Sine_Wave_2D/Quad10/
ZoneType = FETriangle
Nodes = 400
Elements = 200
DataPacking = Block
StrandID = 11
SolutionTime = 1
-0.05662024478137546 -0.05662024478137546 -0.05662024478137546 -0.05662024478137546 -0.09561862120596007 -0.09561862120596007 -0.09561862120596007 -0.09561862120596007 -0.1217540539800731 -0.1217540539800731 
-0.1217540539800731 -0.1217540539800731 -0.1074303037618811 -0.1074303037618811 -0.1074303037618811 -0.1074303037618811 -0.04569708837935244 -0.04569708837935244 -0.04569708837935244 
-0.04569708837935244 0.03585547936212729 0.03585547936212729 0.03585547936212729 0.03585547936212729 0.105705812317332 0.105705812317332 0.105705812317332 0.105705812317332 
0.139267140279152 0.139267140279152 0.139267140279152 0.139267140279152 0.1259641568936109 0.1259641568936109 0.1259641568936109 0.1259641568936109 0.01675344504779169 
0.01675344504779169 0.01675344504779169 0.01675344504779169 -0.093573333751319 -0.093573333751319 -0.093573333751319 -0.093573333751319 -0.1560287823341387 -0.1560287823341387 
-0.1560287823341387 -0.1560287823341387 -0.2055681830260412 -0.2055681830260412 -0.2055681830260412 -0.2055681830260412 -0.1844543844069408 -0.1844543844069408 -0.1844543844069408 
-0.1844543844069408 -0.08804710600037857 -0.08804710600037857 -0.08804710600037857 -0.08804710600037857 0.05014245532996157 0.05014245532996157 0.05014245532996157 0.05014245532996157 
0.1764935811502816 0.1764935811502816 0.1764935811502816 0.1764935811502816 0.2411793771215071 0.2411793771215071 0.2411793771215071 0.2411793771215071 0.2291767296634323 
0.2291767296634323 0.2291767296634323 0.2291767296634323 0.03223872147605329 0.03223872147605329 0.03223872147605329 0.03223872147605329 -0.1140682519911472 -0.1140682519911472 
-0.1140682519911472 -0.1140682519911472 -0.2006069549083087 -0.2006069549083087 -0.2006069549083087 -0.2006069549083087 -0.2654736043006837 -0.2654736043006837 -0.2654736043006837 
-0.2654736043006837 -0.241113574141071 -0.241113574141071 -0.241113574141071 -0.241113574141071 -0.1192828968077345 -0.1192828968077345 -0.1192828968077345 -0.1192828968077345 
0.05929717711290207 0.05929717711290207 0.05929717711290207 0.05929717711290207 0.225654261113485 0.225654261113485 0.225654261113485 0.225654261113485 0.3109074245061098 
0.3109074245061098 0.3109074245061098 0.3109074245061098 0.2947672142735351 0.2947672142735351 0.2947672142735351 0.2947672142735351 0.05268621713472246 0.05268621713472246 
0.05268621713472246 0.05268621713472246 -0.09897831465528462 -0.09897831465528462 -0.09897831465528462 -0.09897831465528462 -0.1794541215723229 -0.1794541215723229 -0.1794541215723229 
-0.1794541215723229 -0.2402727506065664 -0.2402727506065664 -0.2402727506065664 -0.2402727506065664 -0.2185969622859076 -0.2185969622859076 -0.2185969622859076 -0.2185969622859076 
-0.109950794231716 -0.109950794231716 -0.109950794231716 -0.109950794231716 0.05008563586085411 0.05008563586085411 0.05008563586085411 0.05008563586085411 0.2002952663386909 
0.2002952663386909 0.2002952663386909 0.2002952663386909 0.2792680553412333 0.2792680553412333 0.2792680553412333 0.2792680553412333 0.264904350682167 0.264904350682167 
0.264904350682167 0.264904350682167 0.05195137323861202 0.05195137323861202 0.05195137323861202 0.05195137323861202 -0.04416204979217039 -0.04416204979217039 -0.04416204979217039 
-0.04416204979217039 -0.08515718053370387 -0.08515718053370387 -0.08515718053370387 -0.08515718053370387 -0.1165911616497417 -0.1165911616497417 -0.1165911616497417 -0.1165911616497417 
-0.1072788018297473 -0.1072788018297473 -0.1072788018297473 -0.1072788018297473 -0.05578188753382666 -0.05578188753382666 -0.05578188753382666 -0.05578188753382666 0.02133697273505142 
0.02133697273505142 0.02133697273505142 0.02133697273505142 0.09481825713208215 0.09481825713208215 0.09481825713208215 0.09481825713208215 0.1352148423066171 0.1352148423066171 
0.1352148423066171 0.1352148423066171 0.1290615136747894 0.1290615136747894 0.1290615136747894 0.1290615136747894 0.03005932818803105 0.03005932818803105 0.03005932818803105 
0.03005932818803105 0.0361890694868919 0.0361890694868919 0.0361890694868919 0.0361890694868919 0.05609634105848319 0.05609634105848319 0.05609634105848319 0.05609634105848319 
0.07008594828978681 0.07008594828978681 0.07008594828978681 0.07008594828978681 0.06039574164282151 0.06039574164282151 0.06039574164282151 0.06039574164282151 0.02659957676763754 
0.02659957676763754 0.02659957676763754 0.02659957676763754 -0.01960480626223328 -0.01960480626223328 -0.01960480626223328 -0.01960480626223328 -0.06024239416856462 -0.06024239416856462 
-0.06024239416856462 -0.06024239416856462 -0.078786346102797 -0.078786346102797 -0.078786346102797 -0.078786346102797 -0.07227325145058593 -0.07227325145058593 -0.07227325145058593 
-0.07227325145058593 -0.003125280669509592 -0.003125280669509592 -0.003125280669509592 -0.003125280669509592 0.1095559261892607 0.1095559261892607 0.1095559261892607 0.1095559261892607 
0.1857878982536424 0.1857878982536424 0.1857878982536424 0.1857878982536424 0.2419238235723449 0.2419238235723449 0.2419238235723449 0.2419238235723449 0.215697395532796 
0.215697395532796 0.215697395532796 0.215697395532796 0.1027219649026206 0.1027219649026206 0.1027219649026206 0.1027219649026206 -0.05828900268860117 -0.05828900268860117 
-0.05828900268860117 -0.05828900268860117 -0.2056160813854704 -0.2056160813854704 -0.2056160813854704 -0.2056160813854704 -0.2779441348044131 -0.2779441348044131 -0.2779441348044131 
-0.2779441348044131 -0.2596316991237886 -0.2596316991237886 -0.2596316991237886 -0.2596316991237886 -0.04363508071327998 -0.04363508071327998 -0.04363508071327998 -0.04363508071327998 
0.1367881118560145 0.1367881118560145 0.1367881118560145 0.1367881118560145 0.2424601387887959 0.2424601387887959 0.2424601387887959 0.2424601387887959 0.3200029553643982 
0.3200029553643982 0.3200029553643982 0.3200029553643982 0.2882761341072764 0.2882761341072764 0.2882761341072764 0.2882761341072764 0.1392690118059638 0.1392690118059638 
0.1392690118059638 0.1392690118059638 -0.07607020331584119 -0.07607020331584119 -0.07607020331584119 -0.07607020331584119 -0.2740427259870889 -0.2740427259870889 -0.2740427259870889 
-0.2740427259870889 -0.3723605881688022 -0.3723605881688022 -0.3723605881688022 -0.3723605881688022 -0.3473619987531292 -0.3473619987531292 -0.3473619987531292 -0.3473619987531292 
-0.06119989853366375 -0.06119989853366375 -0.06119989853366375 -0.06119989853366375 0.1155428067641136 0.1155428067641136 0.1155428067641136 0.1155428067641136 0.2142772406868432 
0.2142772406868432 0.2142772406868432 0.2142772406868432 0.2823528408170147 0.2823528408170147 0.2823528408170147 0.2823528408170147 0.2529881182432882 0.2529881182432882 
0.2529881182432882 0.2529881182432882 0.1223768887915376 0.1223768887915376 0.1223768887915376 0.1223768887915376 -0.06616843915539374 -0.06616843915539374 -0.06616843915539374 
-0.06616843915539374 -0.2407663962284478 -0.2407663962284478 -0.2407663962284478 -0.2407663962284478 -0.3276669967997926 -0.3276669967997926 -0.3276669967997926 -0.3276669967997926 
-0.3046903121892148 -0.3046903121892148 -0.3046903121892148 -0.3046903121892148 -0.06361530764766252 -0.06361530764766252 -0.06361530764766252 -0.06361530764766252 0.009744803510629754 
0.009744803510629754 0.009744803510629754 0.009744803510629754 0.02211548595055857 0.02211548595055857 0.02211548595055857 0.02211548595055857 0.04083168255884618 0.04083168255884618 
0.04083168255884618 0.04083168255884618 0.04137621711353875 0.04137621711353875 0.04137621711353875 0.04137621711353875 0.02765841591021766 0.02765841591021766 0.02765841591021766 
0.02765841591021766 0.003366066997828642 0.003366066997828642 0.003366066997828642 0.003366066997828642 -0.03308328218049729 -0.03308328218049729 -0.03308328218049729 -0.03308328218049729 
-0.04883029717078721 -0.04883029717078721 -0.04883029717078721 -0.04883029717078721 -0.05436448427188079 -0.05436448427188079 -0.05436448427188079 -0.05436448427188079 -0.0166349770044403 
-0.0166349770044403 -0.0166349770044403 -0.0166349770044403 