Title = Result/Post/Linear_Advection_2D/FVM/MLP_u1_Least_Square/Sine_Wave_2D/Quad10/
FileType = Solution
Variables = q
Zone T = Result/Post/Linear_Advection_2D/FVM/MLP_u1_Least_Square/Sine_Wave_2D/Quad10/
ZoneType = FETriangle
Nodes = 400
Elements = 200
DataPacking = Block
StrandID = 5
SolutionTime = 0.4
0.3403030574168029 0.3403030574168029 0.3403030574168029 0.3403030574168029 0.3750716307907377 0.3750716307907377 0.3750716307907377 0.3750716307907377 0.3389083342771158 0.3389083342771158 
0.3389083342771158 0.3389083342771158 0.1784368819060392 0.1784368819060392 0.1784368819060392 0.1784368819060392 -0.07823149205445255 -0.07823149205445255 -0.07823149205445255 
-0.07823149205445255 -0.3302116862674772 -0.3302116862674772 -0.3302116862674772 -0.3302116862674772 -0.4544278809240508 -0.4544278809240508 -0.4544278809240508 -0.4544278809240508 
-0.4019799567703494 -0.4019799567703494 -0.4019799567703494 -0.4019799567703494 -0.1854581122907151 -0.1854581122907151 -0.1854581122907151 -0.1854581122907151 0.2160094687133274 
0.2160094687133274 0.2160094687133274 0.2160094687133274 0.1967190805059622 0.1967190805059622 0.1967190805059622 0.1967190805059622 0.2189577841693944 0.2189577841693944 
0.2189577841693944 0.2189577841693944 0.1921950306054482 0.1921950306054482 0.1921950306054482 0.1921950306054482 0.09771244872468191 0.09771244872468191 0.09771244872468191 
0.09771244872468191 -0.04605111767172263 -0.04605111767172263 -0.04605111767172263 -0.04605111767172263 -0.1846079243992176 -0.1846079243992176 -0.1846079243992176 -0.1846079243992176 
-0.2539349090908848 -0.2539349090908848 -0.2539349090908848 -0.2539349090908848 -0.2233713412446983 -0.2233713412446983 -0.2233713412446983 -0.2233713412446983 -0.09970454689971682 
-0.09970454689971682 -0.09970454689971682 -0.09970454689971682 0.1050255360400092 0.1050255360400092 0.1050255360400092 0.1050255360400092 -0.09522004645396134 -0.09522004645396134 
-0.09522004645396134 -0.09522004645396134 -0.1019945576063107 -0.1019945576063107 -0.1019945576063107 -0.1019945576063107 -0.0912317271547981 -0.0912317271547981 -0.0912317271547981 
-0.0912317271547981 -0.04582771702812551 -0.04582771702812551 -0.04582771702812551 -0.04582771702812551 0.02594112166966943 0.02594112166966943 0.02594112166966943 0.02594112166966943 
0.0951178533055842 0.0951178533055842 0.0951178533055842 0.0951178533055842 0.1284694808786047 0.1284694808786047 0.1284694808786047 0.1284694808786047 0.1090074866038003 
0.1090074866038003 0.1090074866038003 0.1090074866038003 0.04486227334917375 0.04486227334917375 0.04486227334917375 0.04486227334917375 -0.06802154764370179 -0.06802154764370179 
-0.06802154764370179 -0.06802154764370179 -0.3877237962536521 -0.3877237962536521 -0.3877237962536521 -0.3877237962536521 -0.4270818949398394 -0.4270818949398394 -0.4270818949398394 
-0.4270818949398394 -0.3757844595972684 -0.3757844595972684 -0.3757844595972684 -0.3757844595972684 -0.1860438297731744 -0.1860438297731744 -0.1860438297731744 -0.1860438297731744 
0.1021099558326185 0.1021099558326185 0.1021099558326185 0.1021099558326185 0.3773691996204795 0.3773691996204795 0.3773691996204795 0.3773691996204795 0.5081556077206754 
0.5081556077206754 0.5081556077206754 0.5081556077206754 0.4385138834979586 0.4385138834979586 0.4385138834979586 0.4385138834979586 0.1876771886439459 0.1876771886439459 
0.1876771886439459 0.1876771886439459 -0.2361623473480016 -0.2361623473480016 -0.2361623473480016 -0.2361623473480016 -0.5253707684432627 -0.5253707684432627 -0.5253707684432627 
-0.5253707684432627 -0.5821645475526638 -0.5821645475526638 -0.5821645475526638 -0.5821645475526638 -0.513959748835779 -0.513959748835779 -0.513959748835779 -0.513959748835779 
-0.255137371741881 -0.255137371741881 -0.255137371741881 -0.255137371741881 0.1368058193101695 0.1368058193101695 0.1368058193101695 0.1368058193101695 0.5086201361332291 
0.5086201361332291 0.5086201361332291 0.5086201361332291 0.6864633137274173 0.6864633137274173 0.6864633137274173 0.6864633137274173 0.5967641102115684 0.5967641102115684 
0.5967641102115684 0.5967641102115684 0.2589621878024524 0.2589621878024524 0.2589621878024524 0.2589621878024524 -0.3132247253921763 -0.3132247253921763 -0.3132247253921763 
-0.3132247253921763 -0.4452145373740674 -0.4452145373740674 -0.4452145373740674 -0.4452145373740674 -0.4961331285981387 -0.4961331285981387 -0.4961331285981387 -0.4961331285981387 
-0.4383966708942222 -0.4383966708942222 -0.4383966708942222 -0.4383966708942222 -0.219856147074283 -0.219856147074283 -0.219856147074283 -0.219856147074283 0.1116194665689509 
0.1116194665689509 0.1116194665689509 0.1116194665689509 0.4286234288814077 0.4286234288814077 0.4286234288814077 0.4286234288814077 0.5858426699329864 0.5858426699329864 
0.5858426699329864 0.5858426699329864 0.509760992048069 0.509760992048069 0.509760992048069 0.509760992048069 0.2246632353003025 0.2246632353003025 0.2246632353003025 
0.2246632353003025 -0.2605758086440794 -0.2605758086440794 -0.2605758086440794 -0.2605758086440794 -0.1794683782702741 -0.1794683782702741 -0.1794683782702741 -0.1794683782702741 
-0.2026662293900394 -0.2026662293900394 -0.2026662293900394 -0.2026662293900394 -0.1802334930826435 -0.1802334930826435 -0.1802334930826435 -0.1802334930826435 -0.09302722859741083 
-0.09302722859741083 -0.09302722859741083 -0.09302722859741083 0.03997082225730897 0.03997082225730897 0.03997082225730897 0.03997082225730897 0.1697876662329524 0.1697876662329524 
0.1697876662329524 0.1697876662329524 0.2376978471115054 0.2376978471115054 0.2376978471115054 0.2376978471115054 0.2106111092956545 0.2106111092956545 0.2106111092956545 
0.2106111092956545 0.09707841265985584 0.09707841265985584 0.09707841265985584 0.09707841265985584 -0.1000805556867776 -0.1000805556867776 -0.1000805556867776 -0.1000805556867776 
0.1610391173283394 0.1610391173283394 0.1610391173283394 0.1610391173283394 0.1763174112079856 0.1763174112079856 0.1763174112079856 0.1763174112079856 0.1545820437976248 
0.1545820437976248 0.1545820437976248 0.1545820437976248 0.07400950104887197 0.07400950104887197 0.07400950104887197 0.07400950104887197 -0.04687233640843231 -0.04687233640843231 
-0.04687233640843231 -0.04687233640843231 -0.1596581782079035 -0.1596581782079035 -0.1596581782079035 -0.1596581782079035 -0.2115388732792956 -0.2115388732792956 -0.2115388732792956 
-0.2115388732792956 -0.1778968495101326 -0.1778968495101326 -0.1778968495101326 -0.1778968495101326 -0.07153863252123863 -0.07153863252123863 -0.07153863252123863 -0.07153863252123863 
0.1028137406965284 0.1028137406965284 0.1028137406965284 0.1028137406965284 0.4527503584753912 0.4527503584753912 0.4527503584753912 0.4527503584753912 0.5003741506933246 
0.5003741506933246 0.5003741506933246 0.5003741506933246 0.4373329316007478 0.4373329316007478 0.4373329316007478 0.4373329316007478 0.2133753271715504 0.2133753271715504 
0.2133753271715504 0.2133753271715504 -0.1224637144809072 -0.1224637144809072 -0.1224637144809072 -0.1224637144809072 -0.4417300304311947 -0.4417300304311947 -0.4417300304311947 
-0.4417300304311947 -0.5873476653871466 -0.5873476653871466 -0.5873476653871466 -0.5873476653871466 -0.5038019620144294 -0.5038019620144294 -0.5038019620144294 -0.5038019620144294 
-0.2134992372948504 -0.2134992372948504 -0.2134992372948504 -0.2134992372948504 0.2668080574769371 0.2668080574769371 0.2668080574769371 0.2668080574769371 0.4794885638241592 
0.4794885638241592 0.4794885638241592 0.4794885638241592 0.5348748495124024 0.5348748495124024 0.5348748495124024 0.5348748495124024 0.4757063367817845 0.4757063367817845 
0.4757063367817845 0.4757063367817845 0.2394589732517934 0.2394589732517934 0.2394589732517934 0.2394589732517934 -0.122479169376552 -0.122479169376552 -0.122479169376552 
-0.122479169376552 -0.4701215643505794 -0.4701215643505794 -0.4701215643505794 -0.4701215643505794 -0.635904267398624 -0.635904267398624 -0.635904267398624 -0.635904267398624 
-0.5545315510424602 -0.5545315510424602 -0.5545315510424602 -0.5545315510424602 -0.2440616576075494 -0.2440616576075494 -0.2440616576075494 -0.2440616576075494 0.2932600356878177 
0.2932600356878177 0.2932600356878177 0.2932600356878177 