Title = Result/Post/Linear_Advection_2D/FVM/MLP_u1_Least_Square/Sine_Wave_2D/Quad10/
FileType = Solution
Variables = q
Zone T = Result/Post/Linear_Advection_2D/FVM/MLP_u1_Least_Square/Sine_Wave_2D/Quad10/
ZoneType = FETriangle
Nodes = 400
Elements = 200
DataPacking = Block
StrandID = 19
SolutionTime = 1.8
0.09487229214147093 0.09487229214147093 0.09487229214147093 0.09487229214147093 0.08337531317546494 0.08337531317546494 0.08337531317546494 0.08337531317546494 0.0417834564441963 0.0417834564441963 
0.0417834564441963 0.0417834564441963 -0.01807736584373907 -0.01807736584373907 -0.01807736584373907 -0.01807736584373907 -0.07451270352026751 -0.07451270352026751 -0.07451270352026751 
-0.07451270352026751 -0.1041317714702372 -0.1041317714702372 -0.1041317714702372 -0.1041317714702372 -0.09479668892076412 -0.09479668892076412 -0.09479668892076412 -0.09479668892076412 
-0.04787363730674363 -0.04787363730674363 -0.04787363730674363 -0.04787363730674363 0.02625017572498867 0.02625017572498867 0.02625017572498867 0.02625017572498867 0.0946241706792272 
0.0946241706792272 0.0946241706792272 0.0946241706792272 0.1076222569279567 0.1076222569279567 0.1076222569279567 0.1076222569279567 0.09445230446087385 0.09445230446087385 
0.09445230446087385 0.09445230446087385 0.0491432226909529 0.0491432226909529 0.0491432226909529 0.0491432226909529 -0.0179046274600597 -0.0179046274600597 -0.0179046274600597 
-0.0179046274600597 -0.08260152006455404 -0.08260152006455404 -0.08260152006455404 -0.08260152006455404 -0.1177843377420002 -0.1177843377420002 -0.1177843377420002 -0.1177843377420002 
-0.1091827041796644 -0.1091827041796644 -0.1091827041796644 -0.1091827041796644 -0.05756418877681357 -0.05756418877681357 -0.05756418877681357 -0.05756418877681357 0.02572157691678353 
0.02572157691678353 0.02572157691678353 0.02572157691678353 0.1055282129162061 0.1055282129162061 0.1055282129162061 0.1055282129162061 0.09458216688844728 0.09458216688844728 
0.09458216688844728 0.09458216688844728 0.08352308611444666 0.08352308611444666 0.08352308611444666 0.08352308611444666 0.04471912514415907 0.04471912514415907 0.04471912514415907 
0.04471912514415907 -0.0134256285758689 -0.0134256285758689 -0.0134256285758689 -0.0134256285758689 -0.07042979607379557 -0.07042979607379557 -0.07042979607379557 -0.07042979607379557 
-0.1031731121977779 -0.1031731121977779 -0.1031731121977779 -0.1031731121977779 -0.09719598190874043 -0.09719598190874043 -0.09719598190874043 -0.09719598190874043 -0.05325221698024341 
-0.05325221698024341 -0.05325221698024341 -0.05325221698024341 0.01851070484480079 0.01851070484480079 0.01851070484480079 0.01851070484480079 0.0892112676990881 0.0892112676990881 
0.0892112676990881 0.0892112676990881 0.04505709229250023 0.04505709229250023 0.04505709229250023 0.04505709229250023 0.04098796028523331 0.04098796028523331 0.04098796028523331 
0.04098796028523331 0.02359591114715454 0.02359591114715454 0.02359591114715454 0.02359591114715454 -0.003754271052283268 -0.003754271052283268 -0.003754271052283268 -0.003754271052283268 
-0.0316414294224712 -0.0316414294224712 -0.0316414294224712 -0.0316414294224712 -0.04908258604592809 -0.04908258604592809 -0.04908258604592809 -0.04908258604592809 -0.04827885217111819 
-0.04827885217111819 -0.04827885217111819 -0.04827885217111819 -0.02864693756463264 -0.02864693756463264 -0.02864693756463264 -0.02864693756463264 0.00475862984770753 0.00475862984770753 
0.00475862984770753 0.00475862984770753 0.03972292064912659 0.03972292064912659 0.03972292064912659 0.03972292064912659 -0.0254876590517825 -0.0254876590517825 -0.0254876590517825 
-0.0254876590517825 -0.02077977713700017 -0.02077977713700017 -0.02077977713700017 -0.02077977713700017 -0.008435594906622119 -0.008435594906622119 -0.008435594906622119 -0.008435594906622119 
0.007876123606075255 0.007876123606075255 0.007876123606075255 0.007876123606075255 0.0219397512821251 0.0219397512821251 0.0219397512821251 0.0219397512821251 0.02787977457871162 
0.02787977457871162 0.02787977457871162 0.02787977457871162 0.0228885792940961 0.0228885792940961 0.0228885792940961 0.0228885792940961 0.008980878094715193 0.008980878094715193 
0.008980878094715193 0.008980878094715193 -0.01106899307986996 -0.01106899307986996 -0.01106899307986996 -0.01106899307986996 -0.02756826499677978 -0.02756826499677978 -0.02756826499677978 
-0.02756826499677978 -0.09017798383201092 -0.09017798383201092 -0.09017798383201092 -0.09017798383201092 -0.07812103031660923 -0.07812103031660923 -0.07812103031660923 -0.07812103031660923 
-0.03929076255883682 -0.03929076255883682 -0.03929076255883682 -0.03929076255883682 0.01693947350383266 0.01693947350383266 0.01693947350383266 0.01693947350383266 0.07002494680360984 
0.07002494680360984 0.07002494680360984 0.07002494680360984 0.09799791427834532 0.09799791427834532 0.09799791427834532 0.09799791427834532 0.08891239128103867 0.08891239128103867 
0.08891239128103867 0.08891239128103867 0.04494547344527502 0.04494547344527502 0.04494547344527502 0.04494547344527502 -0.02379505318355956 -0.02379505318355956 -0.02379505318355956 
-0.02379505318355956 -0.08794305387789705 -0.08794305387789705 -0.08794305387789705 -0.08794305387789705 -0.1224248178481379 -0.1224248178481379 -0.1224248178481379 -0.1224248178481379 
-0.1074688974914366 -0.1074688974914366 -0.1074688974914366 -0.1074688974914366 -0.05613940764432976 -0.05613940764432976 -0.05613940764432976 -0.05613940764432976 0.0201277842767834 
0.0201277842767834 0.0201277842767834 0.0201277842767834 0.09323918897678965 0.09323918897678965 0.09323918897678965 0.09323918897678965 0.1326832870456012 0.1326832870456012 
0.1326832870456012 0.1326832870456012 0.122587583056282 0.122587583056282 0.122587583056282 0.122587583056282 0.06446592071034168 0.06446592071034168 0.06446592071034168 
0.06446592071034168 -0.02833136956069722 -0.02833136956069722 -0.02833136956069722 -0.02833136956069722 -0.1169590525168691 -0.1169590525168691 -0.1169590525168691 -0.1169590525168691 
-0.1096532749973129 -0.1096532749973129 -0.1096532749973129 -0.1096532749973129 -0.09715966991525227 -0.09715966991525227 -0.09715966991525227 -0.09715966991525227 -0.05202491437055043 
-0.05202491437055043 -0.05202491437055043 -0.05202491437055043 0.01604420487970649 0.01604420487970649 0.01604420487970649 0.01604420487970649 0.08192320728445995 0.08192320728445995 
0.08192320728445995 0.08192320728445995 0.1186344934156888 0.1186344934156888 0.1186344934156888 0.1186344934156888 0.1106271323690944 0.1106271323690944 0.1106271323690944 
0.1106271323690944 0.05945082331001512 0.05945082331001512 0.05945082331001512 0.05945082331001512 -0.02234393647331839 -0.02234393647331839 -0.02234393647331839 -0.02234393647331839 
-0.1022948549093767 -0.1022948549093767 -0.1022948549093767 -0.1022948549093767 -0.05238364259370748 -0.05238364259370748 -0.05238364259370748 -0.05238364259370748 -0.04674933461840081 
-0.04674933461840081 -0.04674933461840081 -0.04674933461840081 -0.02655560759452923 -0.02655560759452923 -0.02655560759452923 -0.02655560759452923 0.005293723569026741 0.005293723569026741 
0.005293723569026741 0.005293723569026741 0.03711907448271128 0.03711907448271128 0.03711907448271128 0.03711907448271128 0.05603932113248917 0.05603932113248917 0.05603932113248917 
0.05603932113248917 0.0538054529945617 0.0538054529945617 0.0538054529945617 0.0538054529945617 0.03099348045436369 0.03099348045436369 0.03099348045436369 0.03099348045436369 
-0.00616596395760689 -0.00616596395760689 -0.00616596395760689 -0.00616596395760689 -0.04438329023003346 -0.04438329023003346 -0.04438329023003346 -0.04438329023003346 0.05632733911626629 
0.05632733911626629 0.05632733911626629 0.05632733911626629 0.04479811945996573 0.04479811945996573 0.04479811945996573 0.04479811945996573 0.0192483834010339 0.0192483834010339 
0.0192483834010339 0.0192483834010339 -0.01419160559612662 -0.01419160559612662 -0.01419160559612662 -0.01419160559612662 -0.04352810070006786 -0.04352810070006786 -0.04352810070006786 
-0.04352810070006786 -0.05707244970730591 -0.05707244970730591 -0.05707244970730591 -0.05707244970730591 -0.04904978918261469 -0.04904978918261469 -0.04904978918261469 -0.04904978918261469 
-0.02071838503579847 -0.02071838503579847 -0.02071838503579847 -0.02071838503579847 0.01972496245538238 0.01972496245538238 0.01972496245538238 0.01972496245538238 0.05201625961297349 
0.05201625961297349 0.05201625961297349 0.05201625961297349 