Title = Result/Post/Linear_Advection_2D/FVM/MLP_u1_Least_Square/Sine_Wave_2D/Quad10/
FileType = Solution
Variables = q
Zone T = Result/Post/Linear_Advection_2D/FVM/MLP_u1_Least_Square/Sine_Wave_2D/Quad10/
ZoneType = FETriangle
Nodes = 400
Elements = 200
DataPacking = Block
StrandID = 17
SolutionTime = 1.6
0.03013069518133127 0.03013069518133127 0.03013069518133127 0.03013069518133127 -0.02433345813283076 -0.02433345813283076 -0.02433345813283076 -0.02433345813283076 -0.09697841778883499 -0.09697841778883499 
-0.09697841778883499 -0.09697841778883499 -0.1389696407740618 -0.1389696407740618 -0.1389696407740618 -0.1389696407740618 -0.1297939605538964 -0.1297939605538964 -0.1297939605538964 
-0.1297939605538964 -0.0679523477385682 -0.0679523477385682 -0.0679523477385682 -0.0679523477385682 0.02683036525540574 0.02683036525540574 0.02683036525540574 0.02683036525540574 
0.1152737567201065 0.1152737567201065 0.1152737567201065 0.1152737567201065 0.1727468205174484 0.1727468205174484 0.1727468205174484 0.1727468205174484 0.1090539567927046 
0.1090539567927046 0.1090539567927046 0.1090539567927046 0.02799672870181014 0.02799672870181014 0.02799672870181014 0.02799672870181014 -0.02035440492897893 -0.02035440492897893 
-0.02035440492897893 -0.02035440492897893 -0.08226294417344433 -0.08226294417344433 -0.08226294417344433 -0.08226294417344433 -0.1190802263148791 -0.1190802263148791 -0.1190802263148791 
-0.1190802263148791 -0.1122886457628759 -0.1122886457628759 -0.1122886457628759 -0.1122886457628759 -0.0604332704654074 -0.0604332704654074 -0.0604332704654074 -0.0604332704654074 
0.0199999613875654 0.0199999613875654 0.0199999613875654 0.0199999613875654 0.09619348929832355 0.09619348929832355 0.09619348929832355 0.09619348929832355 0.1455589047150974 
0.1455589047150974 0.1455589047150974 0.1455589047150974 0.09612171625714412 0.09612171625714412 0.09612171625714412 0.09612171625714412 0.01701160866103569 0.01701160866103569 
0.01701160866103569 0.01701160866103569 -0.006546001023892701 -0.006546001023892701 -0.006546001023892701 -0.006546001023892701 -0.03717650210996936 -0.03717650210996936 -0.03717650210996936 
-0.03717650210996936 -0.05634515195439996 -0.05634515195439996 -0.05634515195439996 -0.05634515195439996 -0.05526710870157717 -0.05526710870157717 -0.05526710870157717 -0.05526710870157717 
-0.03217107142085521 -0.03217107142085521 -0.03217107142085521 -0.03217107142085521 0.00560264638377847 0.00560264638377847 0.00560264638377847 0.00560264638377847 0.04251249242966731 
0.04251249242966731 0.04251249242966731 0.04251249242966731 0.06671346539056833 0.06671346539056833 0.06671346539056833 0.06671346539056833 0.0476456051577957 0.0476456051577957 
0.0476456051577957 0.0476456051577957 -0.001972293067589567 -0.001972293067589567 -0.001972293067589567 -0.001972293067589567 0.01013632835204309 0.01013632835204309 0.01013632835204309 
0.01013632835204309 0.02503930706683569 0.02503930706683569 0.02503930706683569 0.02503930706683569 0.03164506110312455 0.03164506110312455 0.03164506110312455 0.03164506110312455 
0.02611763736470909 0.02611763736470909 0.02611763736470909 0.02611763736470909 0.01012008500042111 0.01012008500042111 0.01012008500042111 0.01012008500042111 -0.0110502585685027 
-0.0110502585685027 -0.0110502585685027 -0.0110502585685027 -0.02943837704018049 -0.02943837704018049 -0.02943837704018049 -0.02943837704018049 -0.04137548077406181 -0.04137548077406181 
-0.04137548077406181 -0.04137548077406181 -0.02277919481249965 -0.02277919481249965 -0.02277919481249965 -0.02277919481249965 -0.02243099111531147 -0.02243099111531147 -0.02243099111531147 
-0.02243099111531147 0.02282894740464127 0.02282894740464127 0.02282894740464127 0.02282894740464127 0.08079322546791601 0.08079322546791601 0.08079322546791601 0.08079322546791601 
0.1118677755356566 0.1118677755356566 0.1118677755356566 0.1118677755356566 0.1014231323978542 0.1014231323978542 0.1014231323978542 0.1014231323978542 0.0504252458155918 
0.0504252458155918 0.0504252458155918 0.0504252458155918 -0.0244677073345119 -0.0244677073345119 -0.0244677073345119 -0.0244677073345119 -0.09385915151320484 -0.09385915151320484 
-0.09385915151320484 -0.09385915151320484 -0.1383313749207747 -0.1383313749207747 -0.1383313749207747 -0.1383313749207747 -0.08792688687491791 -0.08792688687491791 -0.08792688687491791 
-0.08792688687491791 -0.03433452327093243 -0.03433452327093243 -0.03433452327093243 -0.03433452327093243 0.02747365792997237 0.02747365792997237 0.02747365792997237 0.02747365792997237 
0.107188675753637 0.107188675753637 0.107188675753637 0.107188675753637 0.151113618084616 0.151113618084616 0.151113618084616 0.151113618084616 0.1393874171967001 
0.1393874171967001 0.1393874171967001 0.1393874171967001 0.07214984105600966 0.07214984105600966 0.07214984105600966 0.07214984105600966 -0.0298229982540088 -0.0298229982540088 
-0.0298229982540088 -0.0298229982540088 -0.1253891837033533 -0.1253891837033533 -0.1253891837033533 -0.1253891837033533 -0.1851610677986494 -0.1851610677986494 -0.1851610677986494 
-0.1851610677986494 -0.1212244941776523 -0.1212244941776523 -0.1212244941776523 -0.1212244941776523 -0.03395549815800822 -0.03395549815800822 -0.03395549815800822 -0.03395549815800822 
0.02141853490671467 0.02141853490671467 0.02141853490671467 0.02141853490671467 0.09553482488215284 0.09553482488215284 0.09553482488215284 0.09553482488215284 0.1362172971687935 
0.1362172971687935 0.1362172971687935 0.1362172971687935 0.1256795433428632 0.1256795433428632 0.1256795433428632 0.1256795433428632 0.06655673541632895 0.06655673541632895 
0.06655673541632895 0.06655673541632895 -0.02400238026828242 -0.02400238026828242 -0.02400238026828242 -0.02400238026828242 -0.1099642783695597 -0.1099642783695597 -0.1099642783695597 
-0.1099642783695597 -0.1647355624743241 -0.1647355624743241 -0.1647355624743241 -0.1647355624743241 -0.1095037293441548 -0.1095037293441548 -0.1095037293441548 -0.1095037293441548 
-0.02024269405292652 -0.02024269405292652 -0.02024269405292652 -0.02024269405292652 0.00805460164688359 0.00805460164688359 0.00805460164688359 0.00805460164688359 0.04485958699617391 
0.04485958699617391 0.04485958699617391 0.04485958699617391 0.0644629552619557 0.0644629552619557 0.0644629552619557 0.0644629552619557 0.06121394229830211 0.06121394229830211 
0.06121394229830211 0.06121394229830211 0.03451880862505986 0.03451880862505986 0.03451880862505986 0.03451880862505986 -0.007787634339154849 -0.007787634339154849 -0.007787634339154849 
-0.007787634339154849 -0.04904886069679294 -0.04904886069679294 -0.04904886069679294 -0.04904886069679294 -0.07590619419976348 -0.07590619419976348 -0.07590619419976348 -0.07590619419976348 
-0.05437855597951749 -0.05437855597951749 -0.05437855597951749 -0.05437855597951749 0.003954043529910438 0.003954043529910438 0.003954043529910438 0.003954043529910438 -0.01271867275085426 
-0.01271867275085426 -0.01271867275085426 -0.01271867275085426 -0.0330044427900503 -0.0330044427900503 -0.0330044427900503 -0.0330044427900503 -0.04249818268889884 -0.04249818268889884 
-0.04249818268889884 -0.04249818268889884 -0.03542006144450013 -0.03542006144450013 -0.03542006144450013 -0.03542006144450013 -0.01353455430092263 -0.01353455430092263 -0.01353455430092263 
-0.01353455430092263 0.01607072218843315 0.01607072218843315 0.01607072218843315 0.01607072218843315 0.04126121558013313 0.04126121558013313 0.04126121558013313 0.04126121558013313 
0.05516386221452925 0.05516386221452925 0.05516386221452925 0.05516386221452925 0.03101496167777135 0.03101496167777135 0.03101496167777135 0.03101496167777135 0.02849096070922603 
0.02849096070922603 0.02849096070922603 0.02849096070922603 -0.03020707298050158 -0.03020707298050158 -0.03020707298050158 -0.03020707298050158 -0.09914233315600021 -0.09914233315600021 
-0.09914233315600021 -0.09914233315600021 -0.135819398728433 -0.135819398728433 -0.135819398728433 -0.135819398728433 -0.1226257439960917 -0.1226257439960917 -0.1226257439960917 
-0.1226257439960917 -0.05951475107409782 -0.05951475107409782 -0.05951475107409782 -0.05951475107409782 0.03252876073312339 0.03252876073312339 0.03252876073312339 0.03252876073312339 
0.1166496034831496 0.1166496034831496 0.1166496034831496 0.1166496034831496 0.1652953870131913 0.1652953870131913 0.1652953870131913 0.1652953870131913 0.1074792208092552 
0.1074792208092552 0.1074792208092552 0.1074792208092552 