Title = Result/Post/Linear_Advection_2D/FVM/MLP_u1_Least_Square/Sine_Wave_2D/Quad10/
FileType = Solution
Variables = q
Zone T = Result/Post/Linear_Advection_2D/FVM/MLP_u1_Least_Square/Sine_Wave_2D/Quad10/
ZoneType = FETriangle
Nodes = 400
Elements = 200
DataPacking = Block
StrandID = 18
SolutionTime = 1.7
0.08932733557533107 0.08932733557533107 0.08932733557533107 0.08932733557533107 0.05148878111880253 0.05148878111880253 0.05148878111880253 0.05148878111880253 -0.01994059996612517 -0.01994059996612517 
-0.01994059996612517 -0.01994059996612517 -0.08933581031138556 -0.08933581031138556 -0.08933581031138556 -0.08933581031138556 -0.1270146003728218 -0.1270146003728218 -0.1270146003728218 
-0.1270146003728218 -0.1173507187747271 -0.1173507187747271 -0.1173507187747271 -0.1173507187747271 -0.05966240515322291 -0.05966240515322291 -0.05966240515322291 -0.05966240515322291 
0.02508091609254955 0.02508091609254955 0.02508091609254955 0.02508091609254955 0.1150937896180424 0.1150937896180424 0.1150937896180424 0.1150937896180424 0.1311591449517017 
0.1311591449517017 0.1311591449517017 0.1311591449517017 0.08939759229005587 0.08939759229005587 0.08939759229005587 0.08939759229005587 0.05128404309601699 0.05128404309601699 
0.05128404309601699 0.05128404309601699 -0.01794715041121334 -0.01794715041121334 -0.01794715041121334 -0.01794715041121334 -0.08648210431342601 -0.08648210431342601 -0.08648210431342601 
-0.08648210431342601 -0.1248582918352306 -0.1248582918352306 -0.1248582918352306 -0.1248582918352306 -0.1167854869485253 -0.1167854869485253 -0.1167854869485253 -0.1167854869485253 
-0.06154784541159517 -0.06154784541159517 -0.06154784541159517 -0.06154784541159517 0.021581459246503 0.021581459246503 0.021581459246503 0.021581459246503 0.110101217620462 
0.110101217620462 0.110101217620462 0.110101217620462 0.129427787519671 0.129427787519671 0.129427787519671 0.129427787519671 0.06422704873100965 0.06422704873100965 
0.06422704873100965 0.06422704873100965 0.03764020482527685 0.03764020482527685 0.03764020482527685 0.03764020482527685 -0.01017388684290217 -0.01017388684290217 -0.01017388684290217 
-0.01017388684290217 -0.05805986943227787 -0.05805986943227787 -0.05805986943227787 -0.05805986943227787 -0.08638617771231322 -0.08638617771231322 -0.08638617771231322 -0.08638617771231322 
-0.08254373854414354 -0.08254373854414354 -0.08254373854414354 -0.08254373854414354 -0.04552610857079648 -0.04552610857079648 -0.04552610857079648 -0.04552610857079648 0.0114095373147609 
0.0114095373147609 0.0114095373147609 0.0114095373147609 0.07211235430387405 0.07211235430387405 0.07211235430387405 0.07211235430387405 0.08937992730569069 0.08937992730569069 
0.08937992730569069 0.08937992730569069 0.01205740571305095 0.01205740571305095 0.01205740571305095 0.01205740571305095 0.008934319803327451 0.008934319803327451 0.008934319803327451 
0.008934319803327451 0.00208825699455262 0.00208825699455262 0.00208825699455262 0.00208825699455262 -0.006080865501646717 -0.006080865501646717 -0.006080865501646717 -0.006080865501646717 
-0.01268150915719956 -0.01268150915719956 -0.01268150915719956 -0.01268150915719956 -0.01486989398315025 -0.01486989398315025 -0.01486989398315025 -0.01486989398315025 -0.01125282045019043 
-0.01125282045019043 -0.01125282045019043 -0.01125282045019043 -0.002925142010504933 -0.002925142010504933 -0.002925142010504933 -0.002925142010504933 0.006299403479531851 0.006299403479531851 
0.006299403479531851 0.006299403479531851 0.01255341805906917 0.01255341805906917 0.01255341805906917 0.01255341805906917 -0.04836375609344762 -0.04836375609344762 -0.04836375609344762 
-0.04836375609344762 -0.02568003359451927 -0.02568003359451927 -0.02568003359451927 -0.02568003359451927 0.01386797256756313 0.01386797256756313 0.01386797256756313 0.01386797256756313 
0.05122722182767323 0.05122722182767323 0.05122722182767323 0.05122722182767323 0.07021541217849642 0.07021541217849642 0.07021541217849642 0.07021541217849642 0.06249311627449065 
0.06249311627449065 0.06249311627449065 0.06249311627449065 0.02941646240875408 0.02941646240875408 0.02941646240875408 0.02941646240875408 -0.01673702505439442 -0.01673702505439442 
-0.01673702505439442 -0.01673702505439442 -0.06478718223814967 -0.06478718223814967 -0.06478718223814967 -0.06478718223814967 -0.07321605477711232 -0.07321605477711232 -0.07321605477711232 
-0.07321605477711232 -0.09289536868505101 -0.09289536868505101 -0.09289536868505101 -0.09289536868505101 -0.0519759345562416 -0.0519759345562416 -0.0519759345562416 -0.0519759345562416 
0.02062808665496785 0.02062808665496785 0.02062808665496785 0.02062808665496785 0.09159315024986199 0.09159315024986199 0.09159315024986199 0.09159315024986199 0.1292809661302709 
0.1292809661302709 0.1292809661302709 0.1292809661302709 0.1185200687670461 0.1185200687670461 0.1185200687670461 0.1185200687670461 0.06027053292534929 0.06027053292534929 
0.06027053292534929 0.06027053292534929 -0.02525085260941992 -0.02525085260941992 -0.02525085260941992 -0.02525085260941992 -0.1156789851598859 -0.1156789851598859 -0.1156789851598859 
-0.1156789851598859 -0.1341652070341169 -0.1341652070341169 -0.1341652070341169 -0.1341652070341169 -0.102497080682997 -0.102497080682997 -0.102497080682997 -0.102497080682997 
-0.05923797765581424 -0.05923797765581424 -0.05923797765581424 -0.05923797765581424 0.02018128550161298 0.02018128550161298 0.02018128550161298 0.02018128550161298 0.09876150473675362 
0.09876150473675362 0.09876150473675362 0.09876150473675362 0.1405902528004863 0.1405902528004863 0.1405902528004863 0.1405902528004863 0.1303730756805294 0.1303730756805294 
0.1303730756805294 0.1303730756805294 0.06844070908492889 0.06844070908492889 0.06844070908492889 0.06844070908492889 -0.02494146179601331 -0.02494146179601331 -0.02494146179601331 
-0.02494146179601331 -0.1231141978649865 -0.1231141978649865 -0.1231141978649865 -0.1231141978649865 -0.1453870339834222 -0.1453870339834222 -0.1453870339834222 -0.1453870339834222 
-0.07468684073827141 -0.07468684073827141 -0.07468684073827141 -0.07468684073827141 -0.04392249003143837 -0.04392249003143837 -0.04392249003143837 -0.04392249003143837 0.0123732828290899 
0.0123732828290899 0.0123732828290899 0.0123732828290899 0.06827290517446802 0.06827290517446802 0.06827290517446802 0.06827290517446802 0.09930076963886594 0.09930076963886594 
0.09930076963886594 0.09930076963886594 0.09312115619155253 0.09312115619155253 0.09312115619155253 0.09312115619155253 0.05010550513086671 0.05010550513086671 0.05010550513086671 
0.05010550513086671 -0.0148057998336634 -0.0148057998336634 -0.0148057998336634 -0.0148057998336634 -0.08308262738351699 -0.08308262738351699 -0.08308262738351699 -0.08308262738351699 
-0.1026056057850465 -0.1026056057850465 -0.1026056057850465 -0.1026056057850465 -0.01215805702078227 -0.01215805702078227 -0.01215805702078227 -0.01215805702078227 -0.008673776286983412 
-0.008673776286983412 -0.008673776286983412 -0.008673776286983412 -0.00224382388577659 -0.00224382388577659 -0.00224382388577659 -0.00224382388577659 0.005769150265703173 0.005769150265703173 
0.005769150265703173 0.005769150265703173 0.01188584157469583 0.01188584157469583 0.01188584157469583 0.01188584157469583 0.01380365349471927 0.01380365349471927 0.01380365349471927 
0.01380365349471927 0.01097863039775669 0.01097863039775669 0.01097863039775669 0.01097863039775669 0.00428405540888259 0.00428405540888259 0.00428405540888259 0.00428405540888259 
-0.003852056732840636 -0.003852056732840636 -0.003852056732840636 -0.003852056732840636 -0.01103145515714084 -0.01103145515714084 -0.01103145515714084 -0.01103145515714084 0.07175383812091804 
0.07175383812091804 0.07175383812091804 0.07175383812091804 0.03532863466694121 0.03532863466694121 0.03532863466694121 0.03532863466694121 -0.0206483025094701 -0.0206483025094701 
-0.0206483025094701 -0.0206483025094701 -0.0724204735334287 -0.0724204735334287 -0.0724204735334287 -0.0724204735334287 -0.09840988081001269 -0.09840988081001269 -0.09840988081001269 
-0.09840988081001269 -0.08759582005335451 -0.08759582005335451 -0.08759582005335451 -0.08759582005335451 -0.04050190183235904 -0.04050190183235904 -0.04050190183235904 -0.04050190183235904 
0.02572897762135186 0.02572897762135186 0.02572897762135186 0.02572897762135186 0.09060117287222666 0.09060117287222666 0.09060117287222666 0.09060117287222666 0.1021807542469554 
0.1021807542469554 0.1021807542469554 0.1021807542469554 