Title = Result/Post/Linear_Advection_2D/FVM/MLP_u1_Least_Square/Sine_Wave_2D/Quad10/
FileType = Solution
Variables = q
Zone T = Result/Post/Linear_Advection_2D/FVM/MLP_u1_Least_Square/Sine_Wave_2D/Quad10/
ZoneType = FETriangle
Nodes = 400
Elements = 200
DataPacking = Block
StrandID = 10
SolutionTime = 0.9
-0.1876829880010723 -0.1876829880010723 -0.1876829880010723 -0.1876829880010723 -0.2117226277915615 -0.2117226277915615 -0.2117226277915615 -0.2117226277915615 -0.1824076313426834 -0.1824076313426834 
-0.1824076313426834 -0.1824076313426834 -0.08361657101503936 -0.08361657101503936 -0.08361657101503936 -0.08361657101503936 0.05312962977769652 0.05312962977769652 0.05312962977769652 
0.05312962977769652 0.177117986309965 0.177117986309965 0.177117986309965 0.177117986309965 0.2369456412575993 0.2369456412575993 0.2369456412575993 0.2369456412575993 
0.2114818157106431 0.2114818157106431 0.2114818157106431 0.2114818157106431 0.1003619208610805 0.1003619208610805 0.1003619208610805 0.1003619208610805 -0.1115830574137547 
-0.1115830574137547 -0.1115830574137547 -0.1115830574137547 -0.2473766990273297 -0.2473766990273297 -0.2473766990273297 -0.2473766990273297 -0.2769462061361428 -0.2769462061361428 
-0.2769462061361428 -0.2769462061361428 -0.2432146326553671 -0.2432146326553671 -0.2432146326553671 -0.2432146326553671 -0.1176031344222262 -0.1176031344222262 -0.1176031344222262 
-0.1176031344222262 0.06209719140331899 0.06209719140331899 0.06209719140331899 0.06209719140331899 0.2288113154142145 0.2288113154142145 0.2288113154142145 0.2288113154142145 
0.313130117630539 0.313130117630539 0.313130117630539 0.313130117630539 0.284135372790304 0.284135372790304 0.284135372790304 0.284135372790304 0.143438492744332 
0.143438492744332 0.143438492744332 0.143438492744332 -0.1445934964067221 -0.1445934964067221 -0.1445934964067221 -0.1445934964067221 -0.2606786173664182 -0.2606786173664182 
-0.2606786173664182 -0.2606786173664182 -0.2939374698667462 -0.2939374698667462 -0.2939374698667462 -0.2939374698667462 -0.2598498442890558 -0.2598498442890558 -0.2598498442890558 
-0.2598498442890558 -0.1284982658184029 -0.1284982658184029 -0.1284982658184029 -0.1284982658184029 0.06197773715269071 0.06197773715269071 0.06197773715269071 0.06197773715269071 
0.2400817960951024 0.2400817960951024 0.2400817960951024 0.2400817960951024 0.3309997465543986 0.3309997465543986 0.3309997465543986 0.3309997465543986 0.3025671441902694 
0.3025671441902694 0.3025671441902694 0.3025671441902694 0.155533403720629 0.155533403720629 0.155533403720629 0.155533403720629 -0.1449534385977568 -0.1449534385977568 
-0.1449534385977568 -0.1449534385977568 -0.185148561838897 -0.185148561838897 -0.185148561838897 -0.185148561838897 -0.2115166004535987 -0.2115166004535987 -0.2115166004535987 
-0.2115166004535987 -0.1874586627328418 -0.1874586627328418 -0.1874586627328418 -0.1874586627328418 -0.09399112296857855 -0.09399112296857855 -0.09399112296857855 -0.09399112296857855 
0.04133997149954864 0.04133997149954864 0.04133997149954864 0.04133997149954864 0.1687119686172576 0.1687119686172576 0.1687119686172576 0.1687119686172576 0.236287092117349 
0.236287092117349 0.236287092117349 0.236287092117349 0.2165963491074942 0.2165963491074942 0.2165963491074942 0.2165963491074942 0.111441173460373 0.111441173460373 
0.111441173460373 0.111441173460373 -0.09732351787660401 -0.09732351787660401 -0.09732351787660401 -0.09732351787660401 -0.02519939051280869 -0.02519939051280869 -0.02519939051280869 
-0.02519939051280869 -0.0312420072800242 -0.0312420072800242 -0.0312420072800242 -0.0312420072800242 -0.02969428567785489 -0.02969428567785489 -0.02969428567785489 -0.02969428567785489 
-0.01728513855936012 -0.01728513855936012 -0.01728513855936012 -0.01728513855936012 0.002614428227722933 0.002614428227722933 0.002614428227722933 0.002614428227722933 0.02317593337558339 
0.02317593337558339 0.02317593337558339 0.02317593337558339 0.03592086340142911 0.03592086340142911 0.03592086340142911 0.03592086340142911 0.03533206353047881 0.03533206353047881 
0.03533206353047881 0.03533206353047881 0.02098293505856243 0.02098293505856243 0.02098293505856243 0.02098293505856243 -0.007445920678004182 -0.007445920678004182 -0.007445920678004182 
-0.007445920678004182 0.1624602184135948 0.1624602184135948 0.1624602184135948 0.1624602184135948 0.1810548748803887 0.1810548748803887 0.1810548748803887 0.1810548748803887 
0.1561619146326653 0.1561619146326653 0.1561619146326653 0.1561619146326653 0.07301515864309235 0.07301515864309235 0.07301515864309235 0.07301515864309235 -0.04277753568700379 
-0.04277753568700379 -0.04277753568700379 -0.04277753568700379 -0.1471659859572518 -0.1471659859572518 -0.1471659859572518 -0.1471659859572518 -0.1988003863304429 -0.1988003863304429 
-0.1988003863304429 -0.1988003863304429 -0.1767819122856406 -0.1767819122856406 -0.1767819122856406 -0.1767819122856406 -0.08407041988506231 -0.08407041988506231 -0.08407041988506231 
-0.08407041988506231 0.09500920885731665 0.09500920885731665 0.09500920885731665 0.09500920885731665 0.2934640615512031 0.2934640615512031 0.2934640615512031 0.2934640615512031 
0.3293403662723436 0.3293403662723436 0.3293403662723436 0.3293403662723436 0.286767930005583 0.286767930005583 0.286767930005583 0.286767930005583 0.1364004602127605 
0.1364004602127605 0.1364004602127605 0.1364004602127605 -0.07631639327095768 -0.07631639327095768 -0.07631639327095768 -0.07631639327095768 -0.2712702885109253 -0.2712702885109253 
-0.2712702885109253 -0.2712702885109253 -0.367242259930195 -0.367242259930195 -0.367242259930195 -0.367242259930195 -0.3298428080721307 -0.3298428080721307 -0.3298428080721307 
-0.3298428080721307 -0.1619987468251436 -0.1619987468251436 -0.1619987468251436 -0.1619987468251436 0.1648634082638366 0.1648634082638366 0.1648634082638366 0.1648634082638366 
0.3074687308777349 0.3074687308777349 0.3074687308777349 0.3074687308777349 0.3469960353357289 0.3469960353357289 0.3469960353357289 0.3469960353357289 0.3047529002398164 
0.3047529002398164 0.3047529002398164 0.3047529002398164 0.1466371977148954 0.1466371977148954 0.1466371977148954 0.1466371977148954 -0.07981442349467117 -0.07981442349467117 
-0.07981442349467117 -0.07981442349467117 -0.2883906519341385 -0.2883906519341385 -0.2883906519341385 -0.2883906519341385 -0.3910133940932801 -0.3910133940932801 -0.3910133940932801 
-0.3910133940932801 -0.353852726971399 -0.353852726971399 -0.353852726971399 -0.353852726971399 -0.1771736029527085 -0.1771736029527085 -0.1771736029527085 -0.1771736029527085 
0.1694862334234553 0.1694862334234553 0.1694862334234553 0.1694862334234553 0.2072447171923819 0.2072447171923819 0.2072447171923819 0.2072447171923819 0.2361573986794172 
0.2361573986794172 0.2361573986794172 0.2361573986794172 0.2070690111774676 0.2070690111774676 0.2070690111774676 0.2070690111774676 0.1006709687778504 0.1006709687778504 
0.1006709687778504 0.1006709687778504 -0.05126630020606485 -0.05126630020606485 -0.05126630020606485 -0.05126630020606485 -0.1925113615493286 -0.1925113615493286 -0.1925113615493286 
-0.1925113615493286 -0.2653398710749561 -0.2653398710749561 -0.2653398710749561 -0.2653398710749561 -0.2404621605576313 -0.2404621605576313 -0.2404621605576313 -0.2404621605576313 
-0.1213803926631548 -0.1213803926631548 -0.1213803926631548 -0.1213803926631548 0.1041075743531585 0.1041075743531585 0.1041075743531585 0.1041075743531585 -0.06042414116984686 
-0.06042414116984686 -0.06042414116984686 -0.06042414116984686 -0.06188176576826543 -0.06188176576826543 -0.06188176576826543 -0.06188176576826543 -0.04611751739835835 -0.04611751739835835 
-0.04611751739835835 -0.04611751739835835 -0.01384393534656792 -0.01384393534656792 -0.01384393534656792 -0.01384393534656792 0.02400586113642558 0.02400586113642558 0.02400586113642558 
0.02400586113642558 0.05380424849362384 0.05380424849362384 0.05380424849362384 0.05380424849362384 0.06405172138019219 0.06405172138019219 0.06405172138019219 0.06405172138019219 
0.05048967523359937 0.05048967523359937 0.05048967523359937 0.05048967523359937 0.01332175889580594 0.01332175889580594 0.01332175889580594 0.01332175889580594 -0.02830485398893726 
-0.02830485398893726 -0.02830485398893726 -0.02830485398893726 