Title = Result/Post/Linear_Advection_2D/FVM/MLP_u1_Least_Square/Sine_Wave_2D/Quad10/
FileType = Solution
Variables = q
Zone T = Result/Post/Linear_Advection_2D/FVM/MLP_u1_Least_Square/Sine_Wave_2D/Quad10/
ZoneType = FETriangle
Nodes = 400
Elements = 200
DataPacking = Block
StrandID = 20
SolutionTime = 1.9
0.05867012669329848 0.05867012669329848 0.05867012669329848 0.05867012669329848 0.06668180245896461 0.06668180245896461 0.06668180245896461 0.06668180245896461 0.05835784439037135 0.05835784439037135 
0.05835784439037135 0.05835784439037135 0.02813361131448548 0.02813361131448548 0.02813361131448548 0.02813361131448548 -0.01480449167149821 -0.01480449167149821 -0.01480449167149821 
-0.01480449167149821 -0.05452500428540248 -0.05452500428540248 -0.05452500428540248 -0.05452500428540248 -0.07421544204261735 -0.07421544204261735 -0.07421544204261735 -0.07421544204261735 
-0.06671958649646201 -0.06671958649646201 -0.06671958649646201 -0.06671958649646201 -0.03222777843013497 -0.03222777843013497 -0.03222777843013497 -0.03222777843013497 0.03428183156944487 
0.03428183156944487 0.03428183156944487 0.03428183156944487 0.07780162734202697 0.07780162734202697 0.07780162734202697 0.07780162734202697 0.08814826824448704 0.08814826824448704 
0.08814826824448704 0.08814826824448704 0.07916052058367468 0.07916052058367468 0.07916052058367468 0.07916052058367468 0.0407994088749179 0.0407994088749179 0.0407994088749179 
0.0407994088749179 -0.01650884882116688 -0.01650884882116688 -0.01650884882116688 -0.01650884882116688 -0.07130848565135392 -0.07130848565135392 -0.07130848565135392 -0.07130848565135392 
-0.1003557225298213 -0.1003557225298213 -0.1003557225298213 -0.1003557225298213 -0.09243600252943503 -0.09243600252943503 -0.09243600252943503 -0.09243600252943503 -0.04863901182789713 
-0.04863901182789713 -0.04863901182789713 -0.04863901182789713 0.04368161809026228 0.04368161809026228 0.04368161809026228 0.04368161809026228 0.08085643626580227 0.08085643626580227 
0.08085643626580227 0.08085643626580227 0.09321826708237324 0.09321826708237324 0.09321826708237324 0.09321826708237324 0.08494084871337987 0.08494084871337987 0.08494084871337987 
0.08494084871337987 0.04553506302976643 0.04553506302976643 0.04553506302976643 0.04553506302976643 -0.01512687126595239 -0.01512687126595239 -0.01512687126595239 -0.01512687126595239 
-0.074209543060285 -0.074209543060285 -0.074209543060285 -0.074209543060285 -0.1066814975893143 -0.1066814975893143 -0.1066814975893143 -0.1066814975893143 -0.1000430609141176 
-0.1000430609141176 -0.1000430609141176 -0.1000430609141176 -0.05500663075910851 -0.05500663075910851 -0.05500663075910851 -0.05500663075910851 0.04175977819477081 0.04175977819477081 
0.04175977819477081 0.04175977819477081 0.05507462954103318 0.05507462954103318 0.05507462954103318 0.05507462954103318 0.06511297515312753 0.06511297515312753 0.06511297515312753 
0.06511297515312753 0.06053594136970498 0.06053594136970498 0.06053594136970498 0.06053594136970498 0.03366486958597215 0.03366486958597215 0.03366486958597215 0.03366486958597215 
-0.008358000748543743 -0.008358000748543743 -0.008358000748543743 -0.008358000748543743 -0.05039078563597549 -0.05039078563597549 -0.05039078563597549 -0.05039078563597549 -0.07514310080996688 
-0.07514310080996688 -0.07514310080996688 -0.07514310080996688 -0.07210350363044295 -0.07210350363044295 -0.07210350363044295 -0.07210350363044295 -0.04127002255268992 -0.04127002255268992 
-0.04127002255268992 -0.04127002255268992 0.02546003437848922 0.02546003437848922 0.02546003437848922 0.02546003437848922 0.005643885921049703 0.005643885921049703 0.005643885921049703 
0.005643885921049703 0.008794537956293268 0.008794537956293268 0.008794537956293268 0.008794537956293268 0.01018127548665542 0.01018127548665542 0.01018127548665542 0.01018127548665542 
0.007780903986930023 0.007780903986930023 0.007780903986930023 0.007780903986930023 0.002113124116326642 0.002113124116326642 0.002113124116326642 0.002113124116326642 -0.005062883671933597 
-0.005062883671933597 -0.005062883671933597 -0.005062883671933597 -0.01097852180251096 -0.01097852180251096 -0.01097852180251096 -0.01097852180251096 -0.01300876307840924 -0.01300876307840924 
-0.01300876307840924 -0.01300876307840924 -0.01028380474535047 -0.01028380474535047 -0.01028380474535047 -0.01028380474535047 -0.0009394251981821802 -0.0009394251981821802 -0.0009394251981821802 
-0.0009394251981821802 -0.04899254020849642 -0.04899254020849642 -0.04899254020849642 -0.04899254020849642 -0.05464134113003011 -0.05464134113003011 -0.05464134113003011 -0.05464134113003011 
-0.04763589438425018 -0.04763589438425018 -0.04763589438425018 -0.04763589438425018 -0.02301629696952326 -0.02301629696952326 -0.02301629696952326 -0.02301629696952326 0.01230517340140818 
0.01230517340140818 0.01230517340140818 0.01230517340140818 0.04501107192914906 0.04501107192914906 0.04501107192914906 0.04501107192914906 0.06154006309854651 0.06154006309854651 
0.06154006309854651 0.06154006309854651 0.05496258776223557 0.05496258776223557 0.05496258776223557 0.05496258776223557 0.0266101278349131 0.0266101278349131 0.0266101278349131 
0.0266101278349131 -0.02838704481924503 -0.02838704481924503 -0.02838704481924503 -0.02838704481924503 -0.08747673983715215 -0.08747673983715215 -0.08747673983715215 -0.08747673983715215 
-0.1000632698035517 -0.1000632698035517 -0.1000632698035517 -0.1000632698035517 -0.09005722285551729 -0.09005722285551729 -0.09005722285551729 -0.09005722285551729 -0.04671380292489172 
-0.04671380292489172 -0.04671380292489172 -0.04671380292489172 0.01825069022349295 0.01825069022349295 0.01825069022349295 0.01825069022349295 0.08048460290681345 0.08048460290681345 
0.08048460290681345 0.08048460290681345 0.1134803059411707 0.1134803059411707 0.1134803059411707 0.1134803059411707 0.1044095589076209 0.1044095589076209 0.1044095589076209 
0.1044095589076209 0.05477849864879856 0.05477849864879856 0.05477849864879856 0.05477849864879856 -0.04643019144980051 -0.04643019144980051 -0.04643019144980051 -0.04643019144980051 
-0.09347231684507258 -0.09347231684507258 -0.09347231684507258 -0.09347231684507258 -0.1082864733285559 -0.1082864733285559 -0.1082864733285559 -0.1082864733285559 -0.09913681753214904 
-0.09913681753214904 -0.09913681753214904 -0.09913681753214904 -0.05317146959011776 -0.05317146959011776 -0.05317146959011776 -0.05317146959011776 0.0176935298101361 0.0176935298101361 
0.0176935298101361 0.0176935298101361 0.08627488183114169 0.08627488183114169 0.08627488183114169 0.08627488183114169 0.1231043748725444 0.1231043748725444 0.1231043748725444 
0.1231043748725444 0.1147712886002792 0.1147712886002792 0.1147712886002792 0.1147712886002792 0.06217539377281034 0.06217539377281034 0.06217539377281034 0.06217539377281034 
-0.04751001898137297 -0.04751001898137297 -0.04751001898137297 -0.04751001898137297 -0.0654174649230342 -0.0654174649230342 -0.0654174649230342 -0.0654174649230342 -0.07720110442405106 
-0.07720110442405106 -0.07720110442405106 -0.07720110442405106 -0.07120694728129111 -0.07120694728129111 -0.07120694728129111 -0.07120694728129111 -0.03885056430703178 -0.03885056430703178 
-0.03885056430703178 -0.03885056430703178 0.01101723599853456 0.01101723599853456 0.01101723599853456 0.01101723599853456 0.05999813888029544 0.05999813888029544 0.05999813888029544 
0.05999813888029544 0.08760487771984243 0.08760487771984243 0.08760487771984243 0.08760487771984243 0.08246410384754348 0.08246410384754348 0.08246410384754348 0.08246410384754348 
0.04573776151478846 0.04573776151478846 0.04573776151478846 0.04573776151478846 -0.02888621022768565 -0.02888621022768565 -0.02888621022768565 -0.02888621022768565 0.01784569245256057 
0.01784569245256057 0.01784569245256057 0.01784569245256057 0.01756030312037073 0.01756030312037073 0.01756030312037073 0.01756030312037073 0.01210349124766715 0.01210349124766715 
0.01210349124766715 0.01210349124766715 0.002485033500792217 0.002485033500792217 0.002485033500792217 0.002485033500792217 -0.007831714793152337 -0.007831714793152337 -0.007831714793152337 
-0.007831714793152337 -0.0150582211604558 -0.0150582211604558 -0.0150582211604558 -0.0150582211604558 -0.01651569030027172 -0.01651569030027172 -0.01651569030027172 -0.01651569030027172 
-0.01177263718643671 -0.01177263718643671 -0.01177263718643671 -0.01177263718643671 -0.0006123852968994723 -0.0006123852968994723 -0.0006123852968994723 -0.0006123852968994723 0.009633152141548277 
0.009633152141548277 0.009633152141548277 0.009633152141548277 