Title = Triangle100
FileType = Solution
Variables = q
Zone T = Triangle100
ZoneType = FETriangle
Nodes = 99072
Elements = 33024
DataPacking = Block
StrandID = 19
SolutionTime = 1.8
0.1892065211155055 0.1892065211155055 0.1892065211155055 0.1725347405097586 0.1725347405097586 0.1725347405097586 0.174971369292833 0.174971369292833 0.174971369292833 0.1543222591983678 
0.1543222591983678 0.1543222591983678 0.1915329956562625 0.1915329956562625 0.1915329956562625 0.2969251839399742 0.2969251839399742 0.2969251839399742 0.3196073729932124 
0.3196073729932124 0.3196073729932124 -0.401262834254921 -0.401262834254921 -0.401262834254921 -0.4021557738084201 -0.4021557738084201 -0.4021557738084201 0.4977338159707927 
0.4977338159707927 0.4977338159707927 0.5106294128371456 0.5106294128371456 0.5106294128371456 0.4865340803745247 0.4865340803745247 0.4865340803745247 0.4893386095427108 
0.4893386095427108 0.4893386095427108 -0.1103306140391246 -0.1103306140391246 -0.1103306140391246 -0.1095716740004579 -0.1095716740004579 -0.1095716740004579 -0.1725115683941963 
-0.1725115683941963 -0.1725115683941963 -0.1829552040691071 -0.1829552040691071 -0.1829552040691071 0.4109707286502923 0.4109707286502923 0.4109707286502923 0.4210225169845361 
0.4210225169845361 0.4210225169845361 0.4026239718061791 0.4026239718061791 0.4026239718061791 0.3980497219990071 0.3980497219990071 0.3980497219990071 0.3826489134149722 
0.3826489134149722 0.3826489134149722 0.4756681264037744 0.4756681264037744 0.4756681264037744 0.4898083253583153 0.4898083253583153 0.4898083253583153 -0.2972404732161509 
-0.2972404732161509 -0.2972404732161509 -0.2465955303668829 -0.2465955303668829 -0.2465955303668829 -0.4159405813961874 -0.4159405813961874 -0.4159405813961874 -0.4210023292516175 
-0.4210023292516175 -0.4210023292516175 0.1652654077515953 0.1652654077515953 0.1652654077515953 0.1273182332654862 0.1273182332654862 0.1273182332654862 -0.5344381627798783 
-0.5344381627798783 -0.5344381627798783 -0.5344088688062072 -0.5344088688062072 -0.5344088688062072 -0.5356214270618451 -0.5356214270618451 -0.5356214270618451 0.5582240428101681 
0.5582240428101681 0.5582240428101681 0.5577739635556906 0.5577739635556906 0.5577739635556906 0.5573258701353199 0.5573258701353199 0.5573258701353199 -0.4045342946677001 
-0.4045342946677001 -0.4045342946677001 -0.4032476590304999 -0.4032476590304999 -0.4032476590304999 -0.4071069106550931 -0.4071069106550931 -0.4071069106550931 0.4856915816813432 
0.4856915816813432 0.4856915816813432 0.486758371488679 0.486758371488679 0.486758371488679 0.4882477989138154 0.4882477989138154 0.4882477989138154 -0.1876972417713615 
-0.1876972417713615 -0.1876972417713615 -0.1864010742931384 -0.1864010742931384 -0.1864010742931384 -0.1861326540301464 -0.1861326540301464 -0.1861326540301464 -0.02855602885792831 
-0.02855602885792831 -0.02855602885792831 0.01147051456069599 0.01147051456069599 0.01147051456069599 0.01928881390544386 0.01928881390544386 0.01928881390544386 0.2813327662432673 
0.2813327662432673 0.2813327662432673 0.2801910638173281 0.2801910638173281 0.2801910638173281 0.2804144541652003 0.2804144541652003 0.2804144541652003 0.3556679595046711 
0.3556679595046711 0.3556679595046711 0.3544853729550299 0.3544853729550299 0.3544853729550299 -0.433938400110062 -0.433938400110062 -0.433938400110062 -0.4318795161742921 
-0.4318795161742921 -0.4318795161742921 -0.5054301704249025 -0.5054301704249025 -0.5054301704249025 -0.5044069983683672 -0.5044069983683672 -0.5044069983683672 0.245609656714541 
0.245609656714541 0.245609656714541 0.246630427360272 0.246630427360272 0.246630427360272 -0.1784280502656996 -0.1784280502656996 -0.1784280502656996 -0.182757821138781 
-0.182757821138781 -0.182757821138781 0.1897746132889893 0.1897746132889893 0.1897746132889893 0.2051141624150762 0.2051141624150762 0.2051141624150762 -0.3698986712821096 
-0.3698986712821096 -0.3698986712821096 -0.3686470947588175 -0.3686470947588175 -0.3686470947588175 0.08063099111932596 0.08063099111932596 0.08063099111932596 0.03141647707810823 
0.03141647707810823 0.03141647707810823 -0.2271627308584526 -0.2271627308584526 -0.2271627308584526 -0.2261523594525412 -0.2261523594525412 -0.2261523594525412 -0.4002551658792842 
-0.4002551658792842 -0.4002551658792842 -0.3797252033673729 -0.3797252033673729 -0.3797252033673729 0.225398402753625 0.225398402753625 0.225398402753625 0.2272766299060123 
0.2272766299060123 0.2272766299060123 -0.07873722085041146 -0.07873722085041146 -0.07873722085041146 -0.07906349511654806 -0.07906349511654806 -0.07906349511654806 -0.2650649476654425 
-0.2650649476654425 -0.2650649476654425 -0.2636768142509373 -0.2636768142509373 -0.2636768142509373 -0.3916761502924816 -0.3916761502924816 -0.3916761502924816 -0.3904299317345703 
-0.3904299317345703 -0.3904299317345703 -0.2754631810541679 -0.2754631810541679 -0.2754631810541679 -0.2740845471204303 -0.2740845471204303 -0.2740845471204303 0.09391290384910662 
0.09391290384910662 0.09391290384910662 0.09081449417366606 0.09081449417366606 0.09081449417366606 0.4022209272945683 0.4022209272945683 0.4022209272945683 0.3990410522706974 
0.3990410522706974 0.3990410522706974 -0.1912522304809704 -0.1912522304809704 -0.1912522304809704 -0.1918852725365144 -0.1918852725365144 -0.1918852725365144 0.1064107374835918 
0.1064107374835918 0.1064107374835918 0.1079254753216463 0.1079254753216463 0.1079254753216463 0.1927475646865923 0.1927475646865923 0.1927475646865923 0.2131815028806662 
0.2131815028806662 0.2131815028806662 0.5340697040552709 0.5340697040552709 0.5340697040552709 0.3896438138518366 0.3896438138518366 0.3896438138518366 0.4451154972439151 
0.4451154972439151 0.4451154972439151 0.4438962522746388 0.4438962522746388 0.4438962522746388 0.4496633657885947 0.4496633657885947 0.4496633657885947 -0.03563941070302717 
-0.03563941070302717 -0.03563941070302717 -0.05214260283968587 -0.05214260283968587 -0.05214260283968587 0.3580391666051662 0.3580391666051662 0.3580391666051662 0.3552840939532749 
0.3552840939532749 0.3552840939532749 -0.1046575542603216 -0.1046575542603216 -0.1046575542603216 -0.1058727614882876 -0.1058727614882876 -0.1058727614882876 -0.4095255925669777 
-0.4095255925669777 -0.4095255925669777 -0.4112122221212252 -0.4112122221212252 -0.4112122221212252 0.3557072101927555 0.3557072101927555 0.3557072101927555 0.3542977526169893 
0.3542977526169893 0.3542977526169893 0.1648472822182054 0.1648472822182054 0.1648472822182054 0.162255299603524 0.162255299603524 0.162255299603524 0.3323846346332033 
0.3323846346332033 0.3323846346332033 0.3297288534795189 0.3297288534795189 0.3297288534795189 -0.1760818726176414 -0.1760818726176414 -0.1760818726176414 -0.1710604678585513 
-0.1710604678585513 -0.1710604678585513 0.2000235661117754 0.2000235661117754 0.2000235661117754 0.2066218096726041 0.2066218096726041 0.2066218096726041 -0.2468132111351813 
-0.2468132111351813 -0.2468132111351813 -0.2420624460031395 -0.2420624460031395 -0.2420624460031395 -0.2782952743351381 -0.2782952743351381 -0.2782952743351381 -0.2742354079202912 
-0.2742354079202912 -0.2742354079202912 -0.3799520758553114 -0.3799520758553114 -0.3799520758553114 -0.4043438460250591 -0.4043438460250591 -0.4043438460250591 -0.2428860760591798 
-0.2428860760591798 -0.2428860760591798 -0.2321260836307683 -0.2321260836307683 -0.2321260836307683 0.2801442059957068 0.2801442059957068 0.2801442059957068 0.2747959549340594 
0.2747959549340594 0.2747959549340594 0.1309900834107176 0.1309900834107176 0.1309900834107176 0.1308294695242902 0.1308294695242902 0.1308294695242902 0.1318051958205299 
0.1318051958205299 0.1318051958205299 -0.3957896653961799 -0.3957896653961799 -0.3957896653961799 -0.3975426170473627 -0.3975426170473627 -0.3975426170473627 -0.3938598978587751 
-0.3938598978587751 -0.3938598978587751 -0.4035087899044961 -0.4035087899044961 -0.4035087899044961 -0.4016990755904986 -0.4016990755904986 -0.4016990755904986 -0.4006121778614662 
-0.4006121778614662 -0.4006121778614662 0.03932048223805423 0.03932048223805423 0.03932048223805423 0.0379198132176558 0.0379198132176558 0.0379198132176558 0.03605646735830903 
0.03605646735830903 0.03605646735830903 -0.337131570992421 -0.337131570992421 -0.337131570992421 -0.347184618263182 -0.347184618263182 -0.347184618263182 -0.3435359790752692 
-0.3435359790752692 -0.3435359790752692 0.4831879710245727 0.4831879710245727 0.4831879710245727 0.4862455444656819 0.4862455444656819 0.4862455444656819 0.1652645718228732 
0.1652645718228732 0.1652645718228732 0.1684692074415863 0.1684692074415863 0.1684692074415863 0.132254773763469 0.132254773763469 0.132254773763469 -0.2505956685892338 
-0.2505956685892338 -0.2505956685892338 -0.2880918730820652 -0.2880918730820652 -0.2880918730820652 -0.3034042909260564 -0.3034042909260564 -0.3034042909260564 -0.3653942037031739 
-0.3653942037031739 -0.3653942037031739 -0.3589260526578678 -0.3589260526578678 -0.3589260526578678 -0.3581692449190228 -0.3581692449190228 -0.3581692449190228 0.2067461035452165 
0.2067461035452165 0.2067461035452165 0.1548505530722034 0.1548505530722034 0.1548505530722034 0.1551080346961181 0.1551080346961181 0.1551080346961181 -0.1833631830622256 
-0.1833631830622256 -0.1833631830622256 -0.1816019053139344 -0.1816019053139344 -0.1816019053139344 -0.1819209205209537 -0.1819209205209537 -0.1819209205209537 0.329404415551057 
0.329404415551057 0.329404415551057 0.3262664353151286 0.3262664353151286 0.3262664353151286 0.3251203509211806 0.3251203509211806 0.3251203509211806 0.3602215042690504 
0.3602215042690504 0.3602215042690504 0.3839353106341428 0.3839353106341428 0.3839353106341428 0.3839182788293703 0.3839182788293703 0.3839182788293703 0.1320120740415935 
0.1320120740415935 0.1320120740415935 0.1330674498895157 0.1330674498895157 0.1330674498895157 -0.4310609203262692 -0.4310609203262692 -0.4310609203262692 -0.4297262867281685 
-0.4297262867281685 -0.4297262867281685 -0.428754031682861 -0.428754031682861 -0.428754031682861 -0.1549345332505293 -0.1549345332505293 -0.1549345332505293 -0.1177907164565505 
-0.1177907164565505 -0.1177907164565505 0.1630525780355561 0.1630525780355561 0.1630525780355561 0.1600779028704686 0.1600779028704686 0.1600779028704686 0.1231747313166541 
0.1231747313166541 0.1231747313166541 0.1362914723851822 0.1362914723851822 0.1362914723851822 -0.2183645268099716 -0.2183645268099716 -0.2183645268099716 -0.2428603883376048 
-0.2428603883376048 -0.2428603883376048 0.520914277782666 0.520914277782666 0.520914277782666 0.5231988780842076 0.5231988780842076 0.5231988780842076 0.3257617212356441 
0.3257617212356441 0.3257617212356441 0.3353261570303397 0.3353261570303397 0.3353261570303397 -0.5296412350836039 -0.5296412350836039 -0.5296412350836039 -0.5283503589469505 
-0.5283503589469505 -0.5283503589469505 0.3484065212434203 0.3484065212434203 0.3484065212434203 0.3492572378985724 0.3492572378985724 0.3492572378985724 -0.47747337811929 
-0.47747337811929 -0.47747337811929 -0.4778415460284107 -0.4778415460284107 -0.4778415460284107 0.2177498217429295 0.2177498217429295 0.2177498217429295 0.2251799563315786 
0.2251799563315786 0.2251799563315786 -0.2050958114719743 -0.2050958114719743 -0.2050958114719743 -0.2046487296584733 -0.2046487296584733 -0.2046487296584733 0.09462465873793025 
0.09462465873793025 0.09462465873793025 0.09289490384513956 0.09289490384513956 0.09289490384513956 -0.04146829956023147 -0.04146829956023147 -0.04146829956023147 0.06057478133363376 
0.06057478133363376 0.06057478133363376 -0.2380327958023158 -0.2380327958023158 -0.2380327958023158 -0.2428710879194128 -0.2428710879194128 -0.2428710879194128 0.3606078791636987 
0.3606078791636987 0.3606078791636987 0.3591499143388155 0.3591499143388155 0.3591499143388155 -0.3197962314969869 -0.3197962314969869 -0.3197962314969869 -0.3198286460711037 
-0.3198286460711037 -0.3198286460711037 -0.3167061452728864 -0.3167061452728864 -0.3167061452728864 -0.3184835046284991 -0.3184835046284991 -0.3184835046284991 0.2615857073677548 
0.2615857073677548 0.2615857073677548 0.2623668744697024 0.2623668744697024 0.2623668744697024 -0.27713154641152 -0.27713154641152 -0.27713154641152 -0.2779543708997105 
-0.2779543708997105 -0.2779543708997105 -0.4367721902227613 -0.4367721902227613 -0.4367721902227613 -0.4439541175209024 -0.4439541175209024 -0.4439541175209024 0.09647208928852471 
0.09647208928852471 0.09647208928852471 0.09639706914319149 0.09639706914319149 0.09639706914319149 -0.5187291477605478 -0.5187291477605478 -0.5187291477605478 -0.518200651972565 
-0.518200651972565 -0.518200651972565 0.3703711229266261 0.3703711229266261 0.3703711229266261 0.3693332778580245 0.3693332778580245 0.3693332778580245 -0.5010688413572744 
-0.5010688413572744 -0.5010688413572744 -0.5025837530792228 -0.5025837530792228 -0.5025837530792228 -0.3058452827300383 -0.3058452827300383 -0.3058452827300383 -0.3016081997857673 
-0.3016081997857673 -0.3016081997857673 -0.4234966651470163 -0.4234966651470163 -0.4234966651470163 -0.4239266584410351 -0.4239266584410351 -0.4239266584410351 -0.4859768834239824 
-0.4859768834239824 -0.4859768834239824 -0.4847803538371792 -0.4847803538371792 -0.4847803538371792 0.1092109538925698 0.1092109538925698 0.1092109538925698 0.1118979906875615 
0.1118979906875615 0.1118979906875615 0.4355576642087003 0.4355576642087003 0.4355576642087003 0.4355365562498695 0.4355365562498695 0.4355365562498695 -0.4086687504310407 
-0.4086687504310407 -0.4086687504310407 -0.4097833664736658 -0.4097833664736658 -0.4097833664736658 0.4462311924156542 0.4462311924156542 0.4462311924156542 0.4473650824904807 
0.4473650824904807 0.4473650824904807 0.3696674867825139 0.3696674867825139 0.3696674867825139 0.3319967748964703 0.3319967748964703 0.3319967748964703 0.3789774739453976 
0.3789774739453976 0.3789774739453976 0.377777352092763 0.377777352092763 0.377777352092763 0.3580426861938129 0.3580426861938129 0.3580426861938129 0.3569077884302884 
0.3569077884302884 0.3569077884302884 -0.4085769879552564 -0.4085769879552564 -0.4085769879552564 0.1535594220152308 0.1535594220152308 0.1535594220152308 0.1539846906278876 
0.1539846906278876 0.1539846906278876 -0.3614510754146686 -0.3614510754146686 -0.3614510754146686 -0.3630319586433097 -0.3630319586433097 -0.3630319586433097 -0.3678832092305487 
-0.3678832092305487 -0.3678832092305487 -0.3666716955952938 -0.3666716955952938 -0.3666716955952938 -0.3648120568156019 -0.3648120568156019 -0.3648120568156019 -0.3795755809559854 
-0.3795755809559854 -0.3795755809559854 0.2271684044178243 0.2271684044178243 0.2271684044178243 0.2268605040349425 0.2268605040349425 0.2268605040349425 0.3999462649926738 
0.3999462649926738 0.3999462649926738 0.3993338622152223 0.3993338622152223 0.3993338622152223 -0.2053822317345447 -0.2053822317345447 -0.2053822317345447 -0.1958696142976264 
-0.1958696142976264 -0.1958696142976264 -0.3242503499391682 -0.3242503499391682 -0.3242503499391682 -0.3162831772869529 -0.3162831772869529 -0.3162831772869529 0.1716895345348154 
0.1716895345348154 0.1716895345348154 0.1703448777081401 0.1703448777081401 0.1703448777081401 -0.318262710665994 -0.318262710665994 -0.318262710665994 -0.3172882665534892 
-0.3172882665534892 -0.3172882665534892 0.4850051957778322 0.4850051957778322 0.4850051957778322 -0.1464801116567404 -0.1464801116567404 -0.1464801116567404 -0.1164736884775946 
-0.1164736884775946 -0.1164736884775946 0.2974888736256148 0.2974888736256148 0.2974888736256148 0.3040766998811714 0.3040766998811714 0.3040766998811714 -0.349715236839433 
-0.349715236839433 -0.349715236839433 -0.3490840815756653 -0.3490840815756653 -0.3490840815756653 -0.1605557286213754 -0.1605557286213754 -0.1605557286213754 -0.1572222576322002 
-0.1572222576322002 -0.1572222576322002 0.08752138478274793 0.08752138478274793 0.08752138478274793 0.09162075889661309 0.09162075889661309 0.09162075889661309 0.2892554999831545 
0.2892554999831545 0.2892554999831545 0.2126255646840309 0.2126255646840309 0.2126255646840309 0.2739160486864092 0.2739160486864092 0.2739160486864092 0.163095021701662 
0.163095021701662 0.163095021701662 0.1643480824182912 0.1643480824182912 0.1643480824182912 -0.3336503274058065 -0.3336503274058065 -0.3336503274058065 -0.3324142074041782 
-0.3324142074041782 -0.3324142074041782 -0.3685835962688863 -0.3685835962688863 -0.3685835962688863 -0.3691356273143006 -0.3691356273143006 -0.3691356273143006 -0.5301112652088927 
-0.5301112652088927 -0.5301112652088927 -0.5278709793090091 -0.5278709793090091 -0.5278709793090091 0.5440552800033172 0.5440552800033172 0.5440552800033172 0.5471350146517836 
0.5471350146517836 0.5471350146517836 -0.1718500871693761 -0.1718500871693761 -0.1718500871693761 -0.1721548807281102 -0.1721548807281102 -0.1721548807281102 0.2881155732365215 
0.2881155732365215 0.2881155732365215 0.2872387151118556 0.2872387151118556 0.2872387151118556 0.3145370146604465 0.3145370146604465 0.3145370146604465 0.3055002428506589 
0.3055002428506589 0.3055002428506589 0.2344427335353925 0.2344427335353925 0.2344427335353925 0.2369575626896355 0.2369575626896355 0.2369575626896355 0.1533641714124151 
0.1533641714124151 0.1533641714124151 0.1600532498394708 0.1600532498394708 0.1600532498394708 0.06934406155012456 0.06934406155012456 0.06934406155012456 0.05859236289349832 
0.05859236289349832 0.05859236289349832 -0.1572452623118667 -0.1572452623118667 -0.1572452623118667 -0.1587144866532808 -0.1587144866532808 -0.1587144866532808 0.1254960158286956 
0.1254960158286956 0.1254960158286956 0.07785336467148217 0.07785336467148217 0.07785336467148217 -0.4574168044323226 -0.4574168044323226 -0.4574168044323226 -0.4904286850203013 
-0.4904286850203013 -0.4904286850203013 -0.01494702947052481 -0.01494702947052481 -0.01494702947052481 -0.3351793996269639 -0.3351793996269639 -0.3351793996269639 -0.3335790439679338 
-0.3335790439679338 -0.3335790439679338 -0.2692790392037596 -0.2692790392037596 -0.2692790392037596 -0.2678125845633481 -0.2678125845633481 -0.2678125845633481 0.3540924526194082 
0.3540924526194082 0.3540924526194082 0.3531959452106626 0.3531959452106626 0.3531959452106626 0.4533293243738721 0.4533293243738721 0.4533293243738721 0.4585756421581818 
0.4585756421581818 0.4585756421581818 0.2815136174269416 0.2815136174269416 0.2815136174269416 0.2224010587459675 0.2224010587459675 0.2224010587459675 0.2704831347137038 
0.2704831347137038 0.2704831347137038 0.2468372310726433 0.2468372310726433 0.2468372310726433 -0.2889169536500031 -0.2889169536500031 -0.2889169536500031 -0.259473901389723 
-0.259473901389723 -0.259473901389723 -0.3785104042471633 -0.3785104042471633 -0.3785104042471633 -0.3689917911353512 -0.3689917911353512 -0.3689917911353512 -0.3890541028427085 
-0.3890541028427085 -0.3890541028427085 -0.3860169839765069 -0.3860169839765069 -0.3860169839765069 -0.3134174777920006 -0.3134174777920006 -0.3134174777920006 -0.3171117628965882 
-0.3171117628965882 -0.3171117628965882 -0.1812532479668048 -0.1812532479668048 -0.1812532479668048 -0.1723529620890918 -0.1723529620890918 -0.1723529620890918 -0.1455045646135646 
-0.1455045646135646 -0.1455045646135646 -0.1400858611024203 -0.1400858611024203 -0.1400858611024203 0.2889185519553813 0.2889185519553813 0.2889185519553813 0.2986172195424468 
0.2986172195424468 0.2986172195424468 0.3737795248402999 0.3737795248402999 0.3737795248402999 0.3330715686212802 0.3330715686212802 0.3330715686212802 0.0622945293914702 
0.0622945293914702 0.0622945293914702 0.05923707007883059 0.05923707007883059 0.05923707007883059 -0.244725218405374 -0.244725218405374 -0.244725218405374 -0.2451861452276138 
-0.2451861452276138 -0.2451861452276138 -0.5396542653649909 -0.5396542653649909 -0.5396542653649909 0.5040079942274049 0.5040079942274049 0.5040079942274049 0.5109387097973994 
0.5109387097973994 0.5109387097973994 0.4738616941127629 0.4738616941127629 0.4738616941127629 0.4807497071804722 0.4807497071804722 0.4807497071804722 -0.3345875840547659 
-0.3345875840547659 -0.3345875840547659 -0.3292987442158301 -0.3292987442158301 -0.3292987442158301 -0.1157831660249936 -0.1157831660249936 -0.1157831660249936 -0.1092625152219191 
-0.1092625152219191 -0.1092625152219191 0.2135541573643558 0.2135541573643558 0.2135541573643558 0.2156619337403978 0.2156619337403978 0.2156619337403978 -0.267641845684555 
-0.267641845684555 -0.267641845684555 -0.2751008122756427 -0.2751008122756427 -0.2751008122756427 -0.2727882049779544 -0.2727882049779544 -0.2727882049779544 -0.2536779302931815 
-0.2536779302931815 -0.2536779302931815 0.5224660297781482 0.5224660297781482 0.5224660297781482 0.5348686964192999 0.5348686964192999 0.5348686964192999 -0.3627973154222197 
-0.3627973154222197 -0.3627973154222197 -0.3564374890001524 -0.3564374890001524 -0.3564374890001524 0.05586856936728419 0.05586856936728419 0.05586856936728419 0.1339831509705581 
0.1339831509705581 0.1339831509705581 -0.4345255995538085 -0.4345255995538085 -0.4345255995538085 -0.4402434717188115 -0.4402434717188115 -0.4402434717188115 0.3719824304960792 
0.3719824304960792 0.3719824304960792 0.3729822940087579 0.3729822940087579 0.3729822940087579 0.2957319234847377 0.2957319234847377 0.2957319234847377 0.2700507204101764 
0.2700507204101764 0.2700507204101764 0.5295213725970177 0.5295213725970177 0.5295213725970177 0.5568523063638959 0.5568523063638959 0.5568523063638959 0.5009425080145482 
0.5009425080145482 0.5009425080145482 0.5090459660712807 0.5090459660712807 0.5090459660712807 -0.3048372841373637 -0.3048372841373637 -0.3048372841373637 -0.2499195921513855 
-0.2499195921513855 -0.2499195921513855 -0.3755502397605778 -0.3755502397605778 -0.3755502397605778 -0.379269804352143 -0.379269804352143 -0.379269804352143 0.5102394348894457 
0.5102394348894457 0.5102394348894457 0.5066040510906761 0.5066040510906761 0.5066040510906761 -0.3083021306430415 -0.3083021306430415 -0.3083021306430415 -0.3111080162401469 
-0.3111080162401469 -0.3111080162401469 -0.3266974474881499 -0.3266974474881499 -0.3266974474881499 -0.3366171684362916 -0.3366171684362916 -0.3366171684362916 0.3917107949632983 
0.3917107949632983 0.3917107949632983 0.3952203601816156 0.3952203601816156 0.3952203601816156 0.4843217543679361 0.4843217543679361 0.4843217543679361 0.5224021102355892 
0.5224021102355892 0.5224021102355892 -0.1838575454657547 -0.1838575454657547 -0.1838575454657547 -0.2556220796017346 -0.2556220796017346 -0.2556220796017346 -0.2589380252215672 
-0.2589380252215672 -0.2589380252215672 -0.2622083774078189 -0.2622083774078189 -0.2622083774078189 0.3054246424707552 0.3054246424707552 0.3054246424707552 0.2730010523915104 
0.2730010523915104 0.2730010523915104 -0.3757988501352015 -0.3757988501352015 -0.3757988501352015 -0.3487311262446962 -0.3487311262446962 -0.3487311262446962 0.1251683117933154 
0.1251683117933154 0.1251683117933154 0.1250492879477516 0.1250492879477516 0.1250492879477516 -0.4949435311713418 -0.4949435311713418 -0.4949435311713418 -0.4946194848988311 
-0.4946194848988311 -0.4946194848988311 0.0369532295311544 0.0369532295311544 0.0369532295311544 0.03428625568526678 0.03428625568526678 0.03428625568526678 0.4023290920837526 
0.4023290920837526 0.4023290920837526 0.401158059819297 0.401158059819297 0.401158059819297 0.117229041688002 0.117229041688002 0.117229041688002 -0.02160582754068681 
-0.02160582754068681 -0.02160582754068681 0.1596703014557486 0.1596703014557486 0.1596703014557486 0.1578817814560181 0.1578817814560181 0.1578817814560181 -0.4316622702830825 
-0.4316622702830825 -0.4316622702830825 -0.4326065551250081 -0.4326065551250081 -0.4326065551250081 0.089614353925138 0.089614353925138 0.089614353925138 0.03761382531937375 
0.03761382531937375 0.03761382531937375 -0.4446446908801271 -0.4446446908801271 -0.4446446908801271 -0.4443058663635817 -0.4443058663635817 -0.4443058663635817 0.3544002022007196 
0.3544002022007196 0.3544002022007196 0.314142631545812 0.314142631545812 0.314142631545812 0.2761940620919846 0.2761940620919846 0.2761940620919846 0.2711510050055688 
0.2711510050055688 0.2711510050055688 -0.1525434649604463 -0.1525434649604463 -0.1525434649604463 -0.1690103817404465 -0.1690103817404465 -0.1690103817404465 -0.2469718896924666 
-0.2469718896924666 -0.2469718896924666 -0.2544978960739329 -0.2544978960739329 -0.2544978960739329 0.3438797543711903 0.3438797543711903 0.3438797543711903 0.3434662570777923 
0.3434662570777923 0.3434662570777923 0.1679988759077562 0.1679988759077562 0.1679988759077562 0.1423152693809256 0.1423152693809256 0.1423152693809256 0.4994471072596454 
0.4994471072596454 0.4994471072596454 0.5323973522009072 0.5323973522009072 0.5323973522009072 0.2656602113400107 0.2656602113400107 0.2656602113400107 0.2495613418403706 
0.2495613418403706 0.2495613418403706 0.2882861317668772 0.2882861317668772 0.2882861317668772 0.2855291042287927 0.2855291042287927 0.2855291042287927 0.2847448404192164 
0.2847448404192164 0.2847448404192164 0.2862022448686892 0.2862022448686892 0.2862022448686892 -0.4870182898029609 -0.4870182898029609 -0.4870182898029609 -0.4868686417541912 
-0.4868686417541912 -0.4868686417541912 -0.4883544588509233 -0.4883544588509233 -0.4883544588509233 -0.148954821103138 -0.148954821103138 -0.148954821103138 -0.1440388240671247 
-0.1440388240671247 -0.1440388240671247 -0.134582616743168 -0.134582616743168 -0.134582616743168 -0.3304920380113167 -0.3304920380113167 -0.3304920380113167 -0.3282078967268675 
-0.3282078967268675 -0.3282078967268675 -0.327483209818318 -0.327483209818318 -0.327483209818318 -0.2571413415955305 -0.2571413415955305 -0.2571413415955305 -0.2577866018540925 
-0.2577866018540925 -0.2577866018540925 -0.2232035706919637 -0.2232035706919637 -0.2232035706919637 -0.4720775740277562 -0.4720775740277562 -0.4720775740277562 -0.4709017307884298 
-0.4709017307884298 -0.4709017307884298 -0.4708903298372509 -0.4708903298372509 -0.4708903298372509 -0.4938203910353143 -0.4938203910353143 -0.4938203910353143 -0.4929381973406964 
-0.4929381973406964 -0.4929381973406964 -0.4821081390169055 -0.4821081390169055 -0.4821081390169055 0.3436580917057784 0.3436580917057784 0.3436580917057784 0.1977363620107606 
0.1977363620107606 0.1977363620107606 0.1896949690182074 0.1896949690182074 0.1896949690182074 0.189321450397943 0.189321450397943 0.189321450397943 0.3032388548780887 
0.3032388548780887 0.3032388548780887 0.3027236577266086 0.3027236577266086 0.3027236577266086 0.266714570251699 0.266714570251699 0.266714570251699 0.1912315339263298 
0.1912315339263298 0.1912315339263298 0.1876480232647902 0.1876480232647902 0.1876480232647902 0.1352720376131453 0.1352720376131453 0.1352720376131453 -0.2609718471526259 
-0.2609718471526259 -0.2609718471526259 -0.2575391573127891 -0.2575391573127891 -0.2575391573127891 -0.2520057749915945 -0.2520057749915945 -0.2520057749915945 0.1763586946336111 
0.1763586946336111 0.1763586946336111 0.2047789664383426 0.2047789664383426 0.2047789664383426 0.210922284548723 0.210922284548723 0.210922284548723 -0.3486005054871646 
-0.3486005054871646 -0.3486005054871646 -0.361486429533452 -0.361486429533452 -0.361486429533452 -0.3487478781137694 -0.3487478781137694 -0.3487478781137694 0.491782029006717 
0.491782029006717 0.491782029006717 0.4858337394690817 0.4858337394690817 0.4858337394690817 0.4857322446523474 0.4857322446523474 0.4857322446523474 -0.4387631302725915 
-0.4387631302725915 -0.4387631302725915 -0.4375382720788839 -0.4375382720788839 -0.4375382720788839 -0.4392243802959641 -0.4392243802959641 -0.4392243802959641 0.1982865473485489 
0.1982865473485489 0.1982865473485489 0.1969393038716297 0.1969393038716297 0.1969393038716297 0.2011669703184049 0.2011669703184049 0.2011669703184049 -0.227610205542784 
-0.227610205542784 -0.227610205542784 -0.2468619206154374 -0.2468619206154374 -0.2468619206154374 -0.2529263295133099 -0.2529263295133099 -0.2529263295133099 -0.3827843551920824 
-0.3827843551920824 -0.3827843551920824 -0.3818388686522792 -0.3818388686522792 -0.3818388686522792 -0.3806153728633336 -0.3806153728633336 -0.3806153728633336 -0.2168291652930725 
-0.2168291652930725 -0.2168291652930725 -0.2128587044416651 -0.2128587044416651 -0.2128587044416651 -0.2136629984093414 -0.2136629984093414 -0.2136629984093414 0.5086477543068165 
0.5086477543068165 0.5086477543068165 0.5081436778653139 0.5081436778653139 0.5081436778653139 0.5196854303175171 0.5196854303175171 0.5196854303175171 0.3545822904610039 
0.3545822904610039 0.3545822904610039 0.3565455027411069 0.3565455027411069 0.3565455027411069 0.356689672140977 0.356689672140977 0.356689672140977 0.4470837996125953 
0.4470837996125953 0.4470837996125953 0.4481538535763768 0.4481538535763768 0.4481538535763768 0.4487881032567607 0.4487881032567607 0.4487881032567607 -0.5059819012033163 
-0.5059819012033163 -0.5059819012033163 -0.5048397303080845 -0.5048397303080845 -0.5048397303080845 -0.5039084660730198 -0.5039084660730198 -0.5039084660730198 0.1246274794780461 
0.1246274794780461 0.1246274794780461 0.1255807739466437 0.1255807739466437 0.1255807739466437 0.1269106498270063 0.1269106498270063 0.1269106498270063 -0.3646273799919627 
-0.3646273799919627 -0.3646273799919627 -0.3674800824818358 -0.3674800824818358 -0.3674800824818358 -0.3689428043124151 -0.3689428043124151 -0.3689428043124151 -0.463395964955891 
-0.463395964955891 -0.463395964955891 -0.4320059682877033 -0.4320059682877033 -0.4320059682877033 -0.4343831385722112 -0.4343831385722112 -0.4343831385722112 0.2521271757018616 
0.2521271757018616 0.2521271757018616 0.2415678924919879 0.2415678924919879 0.2415678924919879 0.2408301384699224 0.2408301384699224 0.2408301384699224 -0.5307300574569477 
-0.5307300574569477 -0.5307300574569477 -0.5324505179248589 -0.5324505179248589 -0.5324505179248589 -0.5312993652206677 -0.5312993652206677 -0.5312993652206677 -0.2366180901704817 
-0.2366180901704817 -0.2366180901704817 -0.2469856273294292 -0.2469856273294292 -0.2469856273294292 -0.2479501290369218 -0.2479501290369218 -0.2479501290369218 -0.3617977951670238 