Title = Triangle100
FileType = Solution
Variables = q
Zone T = Triangle100
ZoneType = FETriangle
Nodes = 99072
Elements = 33024
DataPacking = Block
StrandID = 21
SolutionTime = 2
0.2066776920093453 0.2066776920093453 0.2066776920093453 0.194682909999782 0.194682909999782 0.194682909999782 0.1962856038376305 0.1962856038376305 0.1962856038376305 0.1482401441281083 
0.1482401441281083 0.1482401441281083 0.1774261756744635 0.1774261756744635 0.1774261756744635 0.2970063538531186 0.2970063538531186 0.2970063538531186 0.3118139920511371 
0.3118139920511371 0.3118139920511371 -0.3729944345175885 -0.3729944345175885 -0.3729944345175885 -0.3741098766144931 -0.3741098766144931 -0.3741098766144931 0.5282391961408561 
0.5282391961408561 0.5282391961408561 0.5272405434500214 0.5272405434500214 0.5272405434500214 0.4463852511795586 0.4463852511795586 0.4463852511795586 0.4471853212749614 
0.4471853212749614 0.4471853212749614 -0.1413225437142856 -0.1413225437142856 -0.1413225437142856 -0.1394712267535872 -0.1394712267535872 -0.1394712267535872 -0.1573225689268043 
-0.1573225689268043 -0.1573225689268043 -0.1663817897771739 -0.1663817897771739 -0.1663817897771739 0.409840603325499 0.409840603325499 0.409840603325499 0.4147688217453035 
0.4147688217453035 0.4147688217453035 0.3694958817215533 0.3694958817215533 0.3694958817215533 0.3651193931076507 0.3651193931076507 0.3651193931076507 0.3565012653995732 
0.3565012653995732 0.3565012653995732 0.4931701864335392 0.4931701864335392 0.4931701864335392 0.494901050768506 0.494901050768506 0.494901050768506 -0.3105646983298883 
-0.3105646983298883 -0.3105646983298883 -0.2751019672214678 -0.2751019672214678 -0.2751019672214678 -0.3822434970089191 -0.3822434970089191 -0.3822434970089191 -0.3862413852890931 
-0.3862413852890931 -0.3862413852890931 0.1582925694669191 0.1582925694669191 0.1582925694669191 0.1254187106622301 0.1254187106622301 0.1254187106622301 -0.4882422202303274 
-0.4882422202303274 -0.4882422202303274 -0.4889609825833282 -0.4889609825833282 -0.4889609825833282 -0.4902878143712618 -0.4902878143712618 -0.4902878143712618 0.5163344282409357 
0.5163344282409357 0.5163344282409357 0.5151334705273602 0.5151334705273602 0.5151334705273602 0.5142000134266485 0.5142000134266485 0.5142000134266485 -0.3672358907310448 
-0.3672358907310448 -0.3672358907310448 -0.3660680830987634 -0.3660680830987634 -0.3660680830987634 -0.3695508076958494 -0.3695508076958494 -0.3695508076958494 0.443450408646655 
0.443450408646655 0.443450408646655 0.4447185187991183 0.4447185187991183 0.4447185187991183 0.4461046611664984 0.4461046611664984 0.4461046611664984 -0.1721512734086626 
-0.1721512734086626 -0.1721512734086626 -0.1712118185869398 -0.1712118185869398 -0.1712118185869398 -0.1714987817608493 -0.1714987817608493 -0.1714987817608493 -0.06808026691949018 
-0.06808026691949018 -0.06808026691949018 -0.05390370885051475 -0.05390370885051475 -0.05390370885051475 -0.02504284310843984 -0.02504284310843984 -0.02504284310843984 0.2778596438875837 
0.2778596438875837 0.2778596438875837 0.2787388541639186 0.2787388541639186 0.2787388541639186 0.2898904133554871 0.2898904133554871 0.2898904133554871 0.5430452889797031 
0.5430452889797031 0.5430452889797031 0.544858462702462 0.544858462702462 0.544858462702462 -0.3939966478478535 -0.3939966478478535 -0.3939966478478535 -0.3921379327175539 
-0.3921379327175539 -0.3921379327175539 -0.4589013905012617 -0.4589013905012617 -0.4589013905012617 -0.4580723641765324 -0.4580723641765324 -0.4580723641765324 0.2299548253272863 
0.2299548253272863 0.2299548253272863 0.2310661299075731 0.2310661299075731 0.2310661299075731 -0.1629614397523956 -0.1629614397523956 -0.1629614397523956 -0.1672898772217655 
-0.1672898772217655 -0.1672898772217655 0.2085741831506202 0.2085741831506202 0.2085741831506202 0.2213052270016956 0.2213052270016956 0.2213052270016956 -0.3472883785172204 
-0.3472883785172204 -0.3472883785172204 -0.3492876455547455 -0.3492876455547455 -0.3492876455547455 0.06939648024272724 0.06939648024272724 0.06939648024272724 0.02263651985869105 
0.02263651985869105 0.02263651985869105 -0.2329401067233355 -0.2329401067233355 -0.2329401067233355 -0.2328509862010744 -0.2328509862010744 -0.2328509862010744 -0.3761048720623237 
-0.3761048720623237 -0.3761048720623237 -0.3649528821001991 -0.3649528821001991 -0.3649528821001991 0.266235326232823 0.266235326232823 0.266235326232823 0.2680709769445397 
0.2680709769445397 0.2680709769445397 -0.09244568746967548 -0.09244568746967548 -0.09244568746967548 -0.08856972140989801 -0.08856972140989801 -0.08856972140989801 -0.2467185935689952 
-0.2467185935689952 -0.2467185935689952 -0.2462664903838218 -0.2462664903838218 -0.2462664903838218 -0.358427220393684 -0.358427220393684 -0.358427220393684 -0.3587216117757982 
-0.3587216117757982 -0.3587216117757982 -0.3164170037692278 -0.3164170037692278 -0.3164170037692278 -0.3117686613854755 -0.3117686613854755 -0.3117686613854755 0.1063252699822334 
0.1063252699822334 0.1063252699822334 0.1042789981005599 0.1042789981005599 0.1042789981005599 0.3686664795494624 0.3686664795494624 0.3686664795494624 0.3661292733676101 
0.3661292733676101 0.3661292733676101 -0.2221120680839744 -0.2221120680839744 -0.2221120680839744 -0.2238725881486546 -0.2238725881486546 -0.2238725881486546 0.1319099093621992 
0.1319099093621992 0.1319099093621992 0.1340124265952479 0.1340124265952479 0.1340124265952479 0.1784990649919828 0.1784990649919828 0.1784990649919828 0.1956591824949185 
0.1956591824949185 0.1956591824949185 0.4929598422808371 0.4929598422808371 0.4929598422808371 0.5302362042840462 0.5302362042840462 0.5302362042840462 0.5309850206800937 
0.5309850206800937 0.5309850206800937 0.4276565625169141 0.4276565625169141 0.4276565625169141 0.4288409455478995 0.4288409455478995 0.4288409455478995 -0.02370533114112224 
-0.02370533114112224 -0.02370533114112224 -0.04591570804597919 -0.04591570804597919 -0.04591570804597919 0.5382944581738028 0.5382944581738028 0.5382944581738028 0.5293898677727014 
0.5293898677727014 0.5293898677727014 -0.1259862599101108 -0.1259862599101108 -0.1259862599101108 -0.1321043192197731 -0.1321043192197731 -0.1321043192197731 -0.3717200260018734 
-0.3717200260018734 -0.3717200260018734 -0.3732659431768848 -0.3732659431768848 -0.3732659431768848 0.5462186901610268 0.5462186901610268 0.5462186901610268 0.5442488155274553 
0.5442488155274553 0.5442488155274553 0.1837320856728428 0.1837320856728428 0.1837320856728428 0.1816523584126584 0.1816523584126584 0.1816523584126584 0.3108625923152715 
0.3108625923152715 0.3108625923152715 0.3037174401353261 0.3037174401353261 0.3037174401353261 -0.1613507000897422 -0.1613507000897422 -0.1613507000897422 -0.1560636655727358 
-0.1560636655727358 -0.1560636655727358 0.1848452074777727 0.1848452074777727 0.1848452074777727 0.1906043074869544 0.1906043074869544 0.1906043074869544 -0.2287744784098776 
-0.2287744784098776 -0.2287744784098776 -0.2221094530242578 -0.2221094530242578 -0.2221094530242578 -0.3060342564492275 -0.3060342564492275 -0.3060342564492275 -0.296531719302399 
-0.296531719302399 -0.296531719302399 -0.3632879373397068 -0.3632879373397068 -0.3632879373397068 -0.3769424836981439 -0.3769424836981439 -0.3769424836981439 -0.2247971109107851 
-0.2247971109107851 -0.2247971109107851 -0.2132456602539387 -0.2132456602539387 -0.2132456602539387 0.3094785244461459 0.3094785244461459 0.3094785244461459 0.2740340755882198 
0.2740340755882198 0.2740340755882198 0.1332379659665056 0.1332379659665056 0.1332379659665056 0.1297954475043174 0.1297954475043174 0.1297954475043174 0.1296518620939571 
0.1296518620939571 0.1296518620939571 -0.3596923381713731 -0.3596923381713731 -0.3596923381713731 -0.3615667845480104 -0.3615667845480104 -0.3615667845480104 -0.3588595927334395 
-0.3588595927334395 -0.3588595927334395 -0.3663328945206059 -0.3663328945206059 -0.3663328945206059 -0.3647515521471684 -0.3647515521471684 -0.3647515521471684 -0.3638302759674167 
-0.3638302759674167 -0.3638302759674167 0.03188098217749236 0.03188098217749236 0.03188098217749236 0.03086308627193375 0.03086308627193375 0.03086308627193375 0.02738150667861458 
0.02738150667861458 0.02738150667861458 -0.4622421388625673 -0.4622421388625673 -0.4622421388625673 -0.4786460943146307 -0.4786460943146307 -0.4786460943146307 -0.4778957330796382 
-0.4778957330796382 -0.4778957330796382 0.4409956931243535 0.4409956931243535 0.4409956931243535 0.442523442861283 0.442523442861283 0.442523442861283 0.1934243766005724 
0.1934243766005724 0.1934243766005724 0.1940951133702809 0.1940951133702809 0.1940951133702809 0.1688514340690278 0.1688514340690278 0.1688514340690278 -0.2527904351489146 
-0.2527904351489146 -0.2527904351489146 -0.2783717749141573 -0.2783717749141573 -0.2783717749141573 -0.2882191454481513 -0.2882191454481513 -0.2882191454481513 -0.3365744193818041 
-0.3365744193818041 -0.3365744193818041 -0.3321882578186217 -0.3321882578186217 -0.3321882578186217 -0.3312762070062542 -0.3312762070062542 -0.3312762070062542 0.1942386505641189 
0.1942386505641189 0.1942386505641189 0.1559702761200006 0.1559702761200006 0.1559702761200006 0.155722761067969 0.155722761067969 0.155722761067969 -0.1707736566025959 
-0.1707736566025959 -0.1707736566025959 -0.1688487955900417 -0.1688487955900417 -0.1688487955900417 -0.1702835832460994 -0.1702835832460994 -0.1702835832460994 0.3008951162479186 
0.3008951162479186 0.3008951162479186 0.2980549503818879 0.2980549503818879 0.2980549503818879 0.2971451239705578 0.2971451239705578 0.2971451239705578 0.3570514728536883 
0.3570514728536883 0.3570514728536883 0.3683772783583391 0.3683772783583391 0.3683772783583391 0.3677093216253843 0.3677093216253843 0.3677093216253843 0.1272344567215531 
0.1272344567215531 0.1272344567215531 0.1274013402446608 0.1274013402446608 0.1274013402446608 -0.3916377303930834 -0.3916377303930834 -0.3916377303930834 -0.3904152881359839 
-0.3904152881359839 -0.3904152881359839 -0.3895248894010415 -0.3895248894010415 -0.3895248894010415 -0.1761721330954122 -0.1761721330954122 -0.1761721330954122 -0.1445044270603696 
-0.1445044270603696 -0.1445044270603696 0.1936118065203041 0.1936118065203041 0.1936118065203041 0.1886350561780872 0.1886350561780872 0.1886350561780872 0.1344952955431388 
0.1344952955431388 0.1344952955431388 0.1673585345634711 0.1673585345634711 0.1673585345634711 -0.230447026041816 -0.230447026041816 -0.230447026041816 -0.2497655780887344 
-0.2497655780887344 -0.2497655780887344 0.5058161872427203 0.5058161872427203 0.5058161872427203 0.5044730859890794 0.5044730859890794 0.5044730859890794 0.3104764720961064 
0.3104764720961064 0.3104764720961064 0.3168352326231971 0.3168352326231971 0.3168352326231971 -0.4810654393304541 -0.4810654393304541 -0.4810654393304541 -0.4798783620172141 
-0.4798783620172141 -0.4798783620172141 0.5132977428730661 0.5132977428730661 0.5132977428730661 0.5114083259494753 0.5114083259494753 0.5114083259494753 -0.4345592370205587 
-0.4345592370205587 -0.4345592370205587 -0.4344101892637178 -0.4344101892637178 -0.4344101892637178 0.1995488796348672 0.1995488796348672 0.1995488796348672 0.2064227711703553 
0.2064227711703553 0.2064227711703553 -0.2033834486654396 -0.2033834486654396 -0.2033834486654396 -0.2083699913945935 -0.2083699913945935 -0.2083699913945935 0.08465774946120008 
0.08465774946120008 0.08465774946120008 0.08294528544396047 0.08294528544396047 0.08294528544396047 -0.02743217680824332 -0.02743217680824332 -0.02743217680824332 0.05895272864307716 
0.05895272864307716 0.05895272864307716 -0.2190612062153305 -0.2190612062153305 -0.2190612062153305 -0.227451977321988 -0.227451977321988 -0.227451977321988 0.5349397243657112 
0.5349397243657112 0.5349397243657112 0.5385547733244835 0.5385547733244835 0.5385547733244835 -0.4026840218309279 -0.4026840218309279 -0.4026840218309279 -0.4003455672780368 
-0.4003455672780368 -0.4003455672780368 -0.3465366857032397 -0.3465366857032397 -0.3465366857032397 -0.3694652906135756 -0.3694652906135756 -0.3694652906135756 0.2637452815901455 
0.2637452815901455 0.2637452815901455 0.2634014426167205 0.2634014426167205 0.2634014426167205 -0.2777524283525837 -0.2777524283525837 -0.2777524283525837 -0.2903559761875689 
-0.2903559761875689 -0.2903559761875689 -0.3995681221992121 -0.3995681221992121 -0.3995681221992121 -0.4043362938211835 -0.4043362938211835 -0.4043362938211835 0.09692760404662805 
0.09692760404662805 0.09692760404662805 0.09418276115360942 0.09418276115360942 0.09418276115360942 -0.4716441285627736 -0.4716441285627736 -0.4716441285627736 -0.4709109357763704 
-0.4709109357763704 -0.4709109357763704 0.4323092734888148 0.4323092734888148 0.4323092734888148 0.4393804188618738 0.4393804188618738 0.4393804188618738 -0.4548775015423309 
-0.4548775015423309 -0.4548775015423309 -0.4562635847312769 -0.4562635847312769 -0.4562635847312769 -0.2836639836782976 -0.2836639836782976 -0.2836639836782976 -0.2773840717794577 
-0.2773840717794577 -0.2773840717794577 -0.384370461587371 -0.384370461587371 -0.384370461587371 -0.3847630314054305 -0.3847630314054305 -0.3847630314054305 -0.4411803381185835 
-0.4411803381185835 -0.4411803381185835 -0.4402825739970888 -0.4402825739970888 -0.4402825739970888 0.1280757302335686 0.1280757302335686 0.1280757302335686 0.1291173350121312 
0.1291173350121312 0.1291173350121312 0.3959738982585028 0.3959738982585028 0.3959738982585028 0.3963235246549034 0.3963235246549034 0.3963235246549034 -0.3709634210416808 
-0.3709634210416808 -0.3709634210416808 -0.3720032820721805 -0.3720032820721805 -0.3720032820721805 0.4050299520847183 0.4050299520847183 0.4050299520847183 0.4060425523229868 
0.4060425523229868 0.4060425523229868 0.3580385830843195 0.3580385830843195 0.3580385830843195 0.3388919470872987 0.3388919470872987 0.3388919470872987 0.3447133176801043 
0.3447133176801043 0.3447133176801043 0.3436307229494485 0.3436307229494485 0.3436307229494485 0.5478933235242014 0.5478933235242014 0.5478933235242014 0.5471920715470779 
0.5471920715470779 0.5471920715470779 -0.3708851187403044 -0.3708851187403044 -0.3708851187403044 0.1633116369188169 0.1633116369188169 0.1633116369188169 0.1621627207620172 
0.1621627207620172 0.1621627207620172 -0.4506167435911571 -0.4506167435911571 -0.4506167435911571 -0.4950631092369218 -0.4950631092369218 -0.4950631092369218 -0.3769086929783596 
-0.3769086929783596 -0.3769086929783596 -0.3831757976278387 -0.3831757976278387 -0.3831757976278387 -0.3851674718295647 -0.3851674718295647 -0.3851674718295647 -0.3927349547378421 
-0.3927349547378421 -0.3927349547378421 0.2472586206202354 0.2472586206202354 0.2472586206202354 0.2455902760169328 0.2455902760169328 0.2455902760169328 0.3928912997752054 
0.3928912997752054 0.3928912997752054 0.3933894331653621 0.3933894331653621 0.3933894331653621 -0.2098486498186123 -0.2098486498186123 -0.2098486498186123 -0.1838845893873995 
-0.1838845893873995 -0.1838845893873995 -0.2966152107718483 -0.2966152107718483 -0.2966152107718483 -0.2909131208683161 -0.2909131208683161 -0.2909131208683161 0.1934491174863565 
0.1934491174863565 0.1934491174863565 0.1926373278402715 0.1926373278402715 0.1926373278402715 -0.291622777952777 -0.291622777952777 -0.291622777952777 -0.2908699059706334 
-0.2908699059706334 -0.2908699059706334 0.4413618324604228 0.4413618324604228 0.4413618324604228 -0.1500468367888791 -0.1500468367888791 -0.1500468367888791 -0.122119124380966 
-0.122119124380966 -0.122119124380966 0.3519058444911622 0.3519058444911622 0.3519058444911622 0.3724117356882992 0.3724117356882992 0.3724117356882992 -0.3475578248595821 
-0.3475578248595821 -0.3475578248595821 -0.3464825090616762 -0.3464825090616762 -0.3464825090616762 -0.1727370767668362 -0.1727370767668362 -0.1727370767668362 -0.1658173445422703 
-0.1658173445422703 -0.1658173445422703 0.08543024884705128 0.08543024884705128 0.08543024884705128 0.09366972187939837 0.09366972187939837 0.09366972187939837 0.326068084928892 
0.326068084928892 0.326068084928892 0.2591139441796025 0.2591139441796025 0.2591139441796025 0.300378740409992 0.300378740409992 0.300378740409992 0.1491821314606737 
0.1491821314606737 0.1491821314606737 0.150311214037167 0.150311214037167 0.150311214037167 -0.3168432593474414 -0.3168432593474414 -0.3168432593474414 -0.3187415287998154 
-0.3187415287998154 -0.3187415287998154 -0.3357605126729505 -0.3357605126729505 -0.3357605126729505 -0.3382205904198697 -0.3382205904198697 -0.3382205904198697 -0.482674159270678 
-0.482674159270678 -0.482674159270678 -0.4812823690221241 -0.4812823690221241 -0.4812823690221241 0.525350930855721 0.525350930855721 0.525350930855721 0.5239856883493312 
0.5239856883493312 0.5239856883493312 -0.1771303661529668 -0.1771303661529668 -0.1771303661529668 -0.1766094914587217 -0.1766094914587217 -0.1766094914587217 0.291715881693876 
0.291715881693876 0.291715881693876 0.2927656014945703 0.2927656014945703 0.2927656014945703 0.289128778949678 0.289128778949678 0.289128778949678 0.2821704053857571 
0.2821704053857571 0.2821704053857571 0.2674655314691847 0.2674655314691847 0.2674655314691847 0.2686981066462137 0.2686981066462137 0.2686981066462137 0.1641405736945039 
0.1641405736945039 0.1641405736945039 0.1677477437818543 0.1677477437818543 0.1677477437818543 0.0756337537723987 0.0756337537723987 0.0756337537723987 0.06358559005933807 
0.06358559005933807 0.06358559005933807 -0.142888844566227 -0.142888844566227 -0.142888844566227 -0.1441382271326328 -0.1441382271326328 -0.1441382271326328 0.1331476853591509 
0.1331476853591509 0.1331476853591509 0.09461732521016256 0.09461732521016256 0.09461732521016256 -0.4156165279164329 -0.4156165279164329 -0.4156165279164329 -0.4470471698625187 
-0.4470471698625187 -0.4470471698625187 0.01024449234452589 0.01024449234452589 0.01024449234452589 -0.4549423364007075 -0.4549423364007075 -0.4549423364007075 -0.4514668702474007 
-0.4514668702474007 -0.4514668702474007 -0.29022777406862 -0.29022777406862 -0.29022777406862 -0.2954460276742036 -0.2954460276742036 -0.2954460276742036 0.5411810454716498 
0.5411810454716498 0.5411810454716498 0.5417018505397512 0.5417018505397512 0.5417018505397512 0.4291751864733089 0.4291751864733089 0.4291751864733089 0.4302424081796573 
0.4302424081796573 0.4302424081796573 0.2783366432781393 0.2783366432781393 0.2783366432781393 0.2363322435974677 0.2363322435974677 0.2363322435974677 0.310209583878873 
0.310209583878873 0.310209583878873 0.2693404259143726 0.2693404259143726 0.2693404259143726 -0.2698920913607734 -0.2698920913607734 -0.2698920913607734 -0.2493329608700297 
-0.2493329608700297 -0.2493329608700297 -0.3647746335645725 -0.3647746335645725 -0.3647746335645725 -0.3607882920772931 -0.3607882920772931 -0.3607882920772931 -0.3692938648825031 
-0.3692938648825031 -0.3692938648825031 -0.3860350307235585 -0.3860350307235585 -0.3860350307235585 -0.2926544871556403 -0.2926544871556403 -0.2926544871556403 -0.3000350257134677 
-0.3000350257134677 -0.3000350257134677 -0.1671367536705158 -0.1671367536705158 -0.1671367536705158 -0.1571267197803079 -0.1571267197803079 -0.1571267197803079 -0.1326728174013341 
-0.1326728174013341 -0.1326728174013341 -0.1265630246382992 -0.1265630246382992 -0.1265630246382992 0.2658770735205057 0.2658770735205057 0.2658770735205057 0.2741655567140652 
0.2741655567140652 0.2741655567140652 0.3707656044209791 0.3707656044209791 0.3707656044209791 0.3486427979143061 0.3486427979143061 0.3486427979143061 0.0565875010946159 
0.0565875010946159 0.0565875010946159 0.05379899071685707 0.05379899071685707 0.05379899071685707 -0.2254570867044813 -0.2254570867044813 -0.2254570867044813 -0.225452126051174 
-0.225452126051174 -0.225452126051174 -0.4924502494052787 -0.4924502494052787 -0.4924502494052787 0.467938227523052 0.467938227523052 0.467938227523052 0.4692280664955585 
0.4692280664955585 0.4692280664955585 0.4358231838075351 0.4358231838075351 0.4358231838075351 0.4401460353478275 0.4401460353478275 0.4401460353478275 -0.305152657931059 
-0.305152657931059 -0.305152657931059 -0.3010241662625967 -0.3010241662625967 -0.3010241662625967 -0.1050370226045132 -0.1050370226045132 -0.1050370226045132 -0.09759200904488824 
-0.09759200904488824 -0.09759200904488824 0.1964476901303163 0.1964476901303163 0.1964476901303163 0.198954003377549 0.198954003377549 0.198954003377549 -0.2998541345121701 
-0.2998541345121701 -0.2998541345121701 -0.3274333772507868 -0.3274333772507868 -0.3274333772507868 -0.3212408339278577 -0.3212408339278577 -0.3212408339278577 -0.2792540883110943 
-0.2792540883110943 -0.2792540883110943 0.4879388076507605 0.4879388076507605 0.4879388076507605 0.4912712571882454 0.4912712571882454 0.4912712571882454 -0.3330195945588862 
-0.3330195945588862 -0.3330195945588862 -0.3280778455703156 -0.3280778455703156 -0.3280778455703156 0.06981867204595904 0.06981867204595904 0.06981867204595904 0.1314248462131656 
0.1314248462131656 0.1314248462131656 -0.3983308227264447 -0.3983308227264447 -0.3983308227264447 -0.402038499592029 -0.402038499592029 -0.402038499592029 0.3518398689094879 
0.3518398689094879 0.3518398689094879 0.3540341132683776 0.3540341132683776 0.3540341132683776 0.3213671057387608 0.3213671057387608 0.3213671057387608 0.3047339994787671 
0.3047339994787671 0.3047339994787671 0.5246724542127346 0.5246724542127346 0.5246724542127346 0.5246034201058993 0.5246034201058993 0.5246034201058993 0.4630331267623425 
0.4630331267623425 0.4630331267623425 0.4675950168379071 0.4675950168379071 0.4675950168379071 -0.2871062992628484 -0.2871062992628484 -0.2871062992628484 -0.2515386961345293 
-0.2515386961345293 -0.2515386961345293 -0.3417416869330434 -0.3417416869330434 -0.3417416869330434 -0.3446098124077179 -0.3446098124077179 -0.3446098124077179 0.4657291147910343 
0.4657291147910343 0.4657291147910343 0.4646524128722931 0.4646524128722931 0.4646524128722931 -0.3038037912780393 -0.3038037912780393 -0.3038037912780393 -0.3038809957294962 
-0.3038809957294962 -0.3038809957294962 -0.3370061304404268 -0.3370061304404268 -0.3370061304404268 -0.3437138794460368 -0.3437138794460368 -0.3437138794460368 0.3561465459002591 
0.3561465459002591 0.3561465459002591 0.3592412667198107 0.3592412667198107 0.3592412667198107 0.5340312872098922 0.5340312872098922 0.5340312872098922 0.5319949709316316 
0.5319949709316316 0.5319949709316316 -0.2195183721609915 -0.2195183721609915 -0.2195183721609915 -0.2708663908474393 -0.2708663908474393 -0.2708663908474393 -0.2443343949157065 
-0.2443343949157065 -0.2443343949157065 -0.2458612401229024 -0.2458612401229024 -0.2458612401229024 0.2830431684024715 0.2830431684024715 0.2830431684024715 0.2631483991353805 
0.2631483991353805 0.2631483991353805 -0.3642750983705779 -0.3642750983705779 -0.3642750983705779 -0.3482618796253708 -0.3482618796253708 -0.3482618796253708 0.1428144553769407 
0.1428144553769407 0.1428144553769407 0.1388491772275385 0.1388491772275385 0.1388491772275385 -0.4492976773927171 -0.4492976773927171 -0.4492976773927171 -0.4489632829102277 
-0.4489632829102277 -0.4489632829102277 0.03294108395506868 0.03294108395506868 0.03294108395506868 0.03034523443129199 0.03034523443129199 0.03034523443129199 0.3652199978675962 
0.3652199978675962 0.3652199978675962 0.3642105989979593 0.3642105989979593 0.3642105989979593 0.1102201459353718 0.1102201459353718 0.1102201459353718 0.03187068258108405 
0.03187068258108405 0.03187068258108405 0.1488090655589207 0.1488090655589207 0.1488090655589207 0.1464517606683459 0.1464517606683459 0.1464517606683459 -0.3935364560013882 
-0.3935364560013882 -0.3935364560013882 -0.3934746428935292 -0.3934746428935292 -0.3934746428935292 0.1022548765113443 0.1022548765113443 0.1022548765113443 0.06545506691992239 
0.06545506691992239 0.06545506691992239 -0.404078877019551 -0.404078877019551 -0.404078877019551 -0.4034218122691893 -0.4034218122691893 -0.4034218122691893 0.3582485035968517 
0.3582485035968517 0.3582485035968517 0.3347054957409768 0.3347054957409768 0.3347054957409768 0.2745601750495045 0.2745601750495045 0.2745601750495045 0.2591483287167703 
0.2591483287167703 0.2591483287167703 -0.1576497833847227 -0.1576497833847227 -0.1576497833847227 -0.1900280123308196 -0.1900280123308196 -0.1900280123308196 -0.2796503359744313 
-0.2796503359744313 -0.2796503359744313 -0.2821406299945932 -0.2821406299945932 -0.2821406299945932 0.4924926769766335 0.4924926769766335 0.4924926769766335 0.4947021496495989 
0.4947021496495989 0.4947021496495989 0.2010801877526052 0.2010801877526052 0.2010801877526052 0.1443574876229708 0.1443574876229708 0.1443574876229708 0.509906771433172 
0.509906771433172 0.509906771433172 0.5124010585925767 0.5124010585925767 0.5124010585925767 0.310085084833171 0.310085084833171 0.310085084833171 0.2667666330647913 
0.2667666330647913 0.2667666330647913 0.2831281874864852 0.2831281874864852 0.2831281874864852 0.2722168831205299 0.2722168831205299 0.2722168831205299 0.2674450679961906 
0.2674450679961906 0.2674450679961906 0.2676769419864629 0.2676769419864629 0.2676769419864629 -0.4425123174340334 -0.4425123174340334 -0.4425123174340334 -0.4431587925388381 
-0.4431587925388381 -0.4431587925388381 -0.4445609760888886 -0.4445609760888886 -0.4445609760888886 -0.1350494230468039 -0.1350494230468039 -0.1350494230468039 -0.1302257002980518 
-0.1302257002980518 -0.1302257002980518 -0.1221127973831349 -0.1221127973831349 -0.1221127973831349 -0.3126586799493145 -0.3126586799493145 -0.3126586799493145 -0.3084725494406567 
-0.3084725494406567 -0.3084725494406567 -0.3030615023054811 -0.3030615023054811 -0.3030615023054811 -0.2398356351659065 -0.2398356351659065 -0.2398356351659065 -0.2406873645853421 
-0.2406873645853421 -0.2406873645853421 -0.2163545591541761 -0.2163545591541761 -0.2163545591541761 -0.42941234398121 -0.42941234398121 -0.42941234398121 -0.4283237457982022 
-0.4283237457982022 -0.4283237457982022 -0.4279922175856863 -0.4279922175856863 -0.4279922175856863 -0.4673301914782471 -0.4673301914782471 -0.4673301914782471 -0.4651034414931817 
-0.4651034414931817 -0.4651034414931817 -0.4601872842176642 -0.4601872842176642 -0.4601872842176642 0.4968647817288623 0.4968647817288623 0.4968647817288623 0.1858287855616062 
0.1858287855616062 0.1858287855616062 0.1795727301653164 0.1795727301653164 0.1795727301653164 0.1790701037242005 0.1790701037242005 0.1790701037242005 0.297796063475292 
0.297796063475292 0.297796063475292 0.2982356010311312 0.2982356010311312 0.2982356010311312 0.2743949741756385 0.2743949741756385 0.2743949741756385 0.1763475132501404 
0.1763475132501404 0.1763475132501404 0.1731312322707964 0.1731312322707964 0.1731312322707964 0.1320166585529801 0.1320166585529801 0.1320166585529801 -0.2478743090121177 
-0.2478743090121177 -0.2478743090121177 -0.2427834846341447 -0.2427834846341447 -0.2427834846341447 -0.2315625089600105 -0.2315625089600105 -0.2315625089600105 0.1675844846231682 
0.1675844846231682 0.1675844846231682 0.1898251137718194 0.1898251137718194 0.1898251137718194 0.1949474200417932 0.1949474200417932 0.1949474200417932 -0.3224350574234843 
-0.3224350574234843 -0.3224350574234843 -0.3316480018419935 -0.3316480018419935 -0.3316480018419935 -0.3247160687238764 -0.3247160687238764 -0.3247160687238764 0.4630073309357364 
0.4630073309357364 0.4630073309357364 0.4597129486724175 0.4597129486724175 0.4597129486724175 0.4588510561071993 0.4588510561071993 0.4588510561071993 -0.3995745218932311 
-0.3995745218932311 -0.3995745218932311 -0.3984172832128461 -0.3984172832128461 -0.3984172832128461 -0.3992023064576018 -0.3992023064576018 -0.3992023064576018 0.1826569203154748 
0.1826569203154748 0.1826569203154748 0.1815187677827535 0.1815187677827535 0.1815187677827535 0.1848945937456248 0.1848945937456248 0.1848945937456248 -0.2113757355263872 
-0.2113757355263872 -0.2113757355263872 -0.2267095910167804 -0.2267095910167804 -0.2267095910167804 -0.2337955398173568 -0.2337955398173568 -0.2337955398173568 -0.3500682704592262 
-0.3500682704592262 -0.3500682704592262 -0.3511732125723787 -0.3511732125723787 -0.3511732125723787 -0.3518097499997902 -0.3518097499997902 -0.3518097499997902 -0.2299692973679646 
-0.2299692973679646 -0.2299692973679646 -0.2140342579651737 -0.2140342579651737 -0.2140342579651737 -0.2136153743550669 -0.2136153743550669 -0.2136153743550669 0.4853434087910657 
0.4853434087910657 0.4853434087910657 0.4863677392785176 0.4863677392785176 0.4863677392785176 0.4901254057831607 0.4901254057831607 0.4901254057831607 0.5088736864161488 
0.5088736864161488 0.5088736864161488 0.5209955311617327 0.5209955311617327 0.5209955311617327 0.5364636052616548 0.5364636052616548 0.5364636052616548 0.4107125409823412 
0.4107125409823412 0.4107125409823412 0.4118410365095528 0.4118410365095528 0.4118410365095528 0.4128304579135897 0.4128304579135897 0.4128304579135897 -0.4630203976793116 
-0.4630203976793116 -0.4630203976793116 -0.4618295535825032 -0.4618295535825032 -0.4618295535825032 -0.4608627869711389 -0.4608627869711389 -0.4608627869711389 0.1201168405383692 
0.1201168405383692 0.1201168405383692 0.1202177126598803 0.1202177126598803 0.1202177126598803 0.120358617551965 0.120358617551965 0.120358617551965 -0.3332073657931811 
-0.3332073657931811 -0.3332073657931811 -0.3362673967095386 -0.3362673967095386 -0.3362673967095386 -0.3369003567505559 -0.3369003567505559 -0.3369003567505559 -0.4568939867691637 
-0.4568939867691637 -0.4568939867691637 -0.4461989045555896 -0.4461989045555896 -0.4461989045555896 -0.4456520452057146 -0.4456520452057146 -0.4456520452057146 0.2694034017830961 
0.2694034017830961 0.2694034017830961 0.244643409638348 0.244643409638348 0.244643409638348 0.2454715343021823 0.2454715343021823 0.2454715343021823 -0.4853393015790791 
-0.4853393015790791 -0.4853393015790791 -0.4854403258169437 -0.4854403258169437 -0.4854403258169437 -0.4842990282218703 -0.4842990282218703 -0.4842990282218703 -0.2505689286743637 
-0.2505689286743637 -0.2505689286743637 -0.2823681241654016 -0.2823681241654016 -0.2823681241654016 -0.2840194770299689 -0.2840194770299689 -0.2840194770299689 -0.5041039129200451 