Title = Triangle100
FileType = Solution
Variables = q
Zone T = Triangle100
ZoneType = FETriangle
Nodes = 99072
Elements = 33024
DataPacking = Block
StrandID = 11
SolutionTime = 1
0.1234481824385766 0.1234481824385766 0.1234481824385766 0.120227814991507 0.120227814991507 0.120227814991507 0.1183400061397513 0.1183400061397513 0.1183400061397513 -0.06138594866576181 
-0.06138594866576181 -0.06138594866576181 0.06101683377543987 0.06101683377543987 0.06101683377543987 0.2137696735802143 0.2137696735802143 0.2137696735802143 0.2182155366963872 
0.2182155366963872 0.2182155366963872 -0.2826619938100675 -0.2826619938100675 -0.2826619938100675 -0.2851658922183174 -0.2851658922183174 -0.2851658922183174 0.5628021945451218 
0.5628021945451218 0.5628021945451218 0.5606701128599421 0.5606701128599421 0.5606701128599421 0.4089464288392917 0.4089464288392917 0.4089464288392917 0.4078697592308015 
0.4078697592308015 0.4078697592308015 -0.1452377099304596 -0.1452377099304596 -0.1452377099304596 -0.147807662181774 -0.147807662181774 -0.147807662181774 0.08788717187250462 
0.08788717187250462 0.08788717187250462 -0.02543662488572621 -0.02543662488572621 -0.02543662488572621 0.4001092541870573 0.4001092541870573 0.4001092541870573 0.3981394557339252 
0.3981394557339252 0.3981394557339252 0.2680182495358668 0.2680182495358668 0.2680182495358668 0.2596762009129236 0.2596762009129236 0.2596762009129236 0.25670929148839 
0.25670929148839 0.25670929148839 0.5207300893694574 0.5207300893694574 0.5207300893694574 0.5183307667487198 0.5183307667487198 0.5183307667487198 -0.2755790450750678 
-0.2755790450750678 -0.2755790450750678 -0.2758966898404469 -0.2758966898404469 -0.2758966898404469 -0.2910318280785112 -0.2910318280785112 -0.2910318280785112 -0.2972083999921439 
-0.2972083999921439 -0.2972083999921439 -0.05496297930178352 -0.05496297930178352 -0.05496297930178352 -0.08570801763557936 -0.08570801763557936 -0.08570801763557936 -0.482549818337246 
-0.482549818337246 -0.482549818337246 -0.484362812199276 -0.484362812199276 -0.484362812199276 -0.4869195492267666 -0.4869195492267666 -0.4869195492267666 0.5359972076471264 
0.5359972076471264 0.5359972076471264 0.5336491728224309 0.5336491728224309 0.5336491728224309 0.5318279703784596 0.5318279703784596 0.5318279703784596 -0.2553308492413209 
-0.2553308492413209 -0.2553308492413209 -0.2536607744573215 -0.2536607744573215 -0.2536607744573215 -0.2610550616805528 -0.2610550616805528 -0.2610550616805528 0.4004312373877938 
0.4004312373877938 0.4004312373877938 0.4031931533627756 0.4031931533627756 0.4031931533627756 0.4057719442656338 0.4057719442656338 0.4057719442656338 -0.30839281283614 
-0.30839281283614 -0.30839281283614 -0.3067537895823733 -0.3067537895823733 -0.3067537895823733 -0.3099688155107758 -0.3099688155107758 -0.3099688155107758 0.05101544565946915 
0.05101544565946915 0.05101544565946915 0.04893095050544259 0.04893095050544259 0.04893095050544259 0.04654882880253292 0.04654882880253292 0.04654882880253292 0.4564592118129481 
0.4564592118129481 0.4564592118129481 0.4550906254490585 0.4550906254490585 0.4550906254490585 0.464730647615985 0.464730647615985 0.464730647615985 0.5990344703067163 
0.5990344703067163 0.5990344703067163 0.5961710278047763 0.5961710278047763 0.5961710278047763 -0.3050249244368637 -0.3050249244368637 -0.3050249244368637 -0.30157346378406 
-0.30157346378406 -0.30157346378406 -0.4258588543581364 -0.4258588543581364 -0.4258588543581364 -0.424391703265169 -0.424391703265169 -0.424391703265169 0.04226079038102457 
0.04226079038102457 0.04226079038102457 0.04447213537180545 0.04447213537180545 0.04447213537180545 -0.2930662892071139 -0.2930662892071139 -0.2930662892071139 -0.3014348385865765 
-0.3014348385865765 -0.3014348385865765 0.1406631944251337 0.1406631944251337 0.1406631944251337 0.1397925028833036 0.1397925028833036 0.1397925028833036 -0.5918250630394413 
-0.5918250630394413 -0.5918250630394413 -0.5931142249062396 -0.5931142249062396 -0.5931142249062396 0.16669949247458 0.16669949247458 0.16669949247458 0.1441046220626199 
0.1441046220626199 0.1441046220626199 -0.1383518155755447 -0.1383518155755447 -0.1383518155755447 -0.1408016488500041 -0.1408016488500041 -0.1408016488500041 -0.2939413377330718 
-0.2939413377330718 -0.2939413377330718 -0.289738776438904 -0.289738776438904 -0.289738776438904 0.2914040198455526 0.2914040198455526 0.2914040198455526 0.2891152347778218 
0.2891152347778218 0.2891152347778218 -0.1226495985573614 -0.1226495985573614 -0.1226495985573614 -0.1269185824625558 -0.1269185824625558 -0.1269185824625558 -0.4118728903983729 
-0.4118728903983729 -0.4118728903983729 -0.4119717484241292 -0.4119717484241292 -0.4119717484241292 -0.6533098533170942 -0.6533098533170942 -0.6533098533170942 -0.6522058175122113 
-0.6522058175122113 -0.6522058175122113 -0.4424187989950053 -0.4424187989950053 -0.4424187989950053 -0.4436818994702114 -0.4436818994702114 -0.4436818994702114 -0.02740905561544506 
-0.02740905561544506 -0.02740905561544506 -0.02543753518212432 -0.02543753518212432 -0.02543753518212432 0.2655218162648977 0.2655218162648977 0.2655218162648977 0.2617114494762711 
0.2617114494762711 0.2617114494762711 -0.2691847583604464 -0.2691847583604464 -0.2691847583604464 -0.2740453836233746 -0.2740453836233746 -0.2740453836233746 0.1513246933652125 
0.1513246933652125 0.1513246933652125 0.1490461572934497 0.1490461572934497 0.1490461572934497 -0.02086482367394471 -0.02086482367394471 -0.02086482367394471 0.2516550156240255 
0.2516550156240255 0.2516550156240255 0.4941309750153698 0.4941309750153698 0.4941309750153698 0.5737659679589866 0.5737659679589866 0.5737659679589866 0.5693341977096074 
0.5693341977096074 0.5693341977096074 0.4043312810578917 0.4043312810578917 0.4043312810578917 0.3991937351884612 0.3991937351884612 0.3991937351884612 -0.08109186320085865 
-0.08109186320085865 -0.08109186320085865 -0.08885018299033577 -0.08885018299033577 -0.08885018299033577 0.6034951426362321 0.6034951426362321 0.6034951426362321 0.5986592057850698 
0.5986592057850698 0.5986592057850698 -0.1576675648279294 -0.1576675648279294 -0.1576675648279294 -0.152948914784723 -0.152948914784723 -0.152948914784723 -0.2651335991389936 
-0.2651335991389936 -0.2651335991389936 -0.2664057367505007 -0.2664057367505007 -0.2664057367505007 0.5987965068985147 0.5987965068985147 0.5987965068985147 0.5953630001302184 
0.5953630001302184 0.5953630001302184 0.1327510839626012 0.1327510839626012 0.1327510839626012 0.1272512950049762 0.1272512950049762 0.1272512950049762 0.4708456767120347 
0.4708456767120347 0.4708456767120347 0.4269720382328551 0.4269720382328551 0.4269720382328551 -0.2958473464513667 -0.2958473464513667 -0.2958473464513667 -0.2880790615668741 
-0.2880790615668741 -0.2880790615668741 0.2280024308044127 0.2280024308044127 0.2280024308044127 0.3049221358998859 0.3049221358998859 0.3049221358998859 -0.3581839705123224 
-0.3581839705123224 -0.3581839705123224 -0.1977870720471206 -0.1977870720471206 -0.1977870720471206 -0.4587853430821303 -0.4587853430821303 -0.4587853430821303 -0.4512623068164244 
-0.4512623068164244 -0.4512623068164244 -0.2858541484420407 -0.2858541484420407 -0.2858541484420407 -0.2915748614965348 -0.2915748614965348 -0.2915748614965348 -0.3317922455194899 
-0.3317922455194899 -0.3317922455194899 -0.1082615742960377 -0.1082615742960377 -0.1082615742960377 0.4646946206927854 0.4646946206927854 0.4646946206927854 0.4523744155736714 
0.4523744155736714 0.4523744155736714 0.2154293653857418 0.2154293653857418 0.2154293653857418 0.2167699906651641 0.2167699906651641 0.2167699906651641 0.2190088245613807 
0.2190088245613807 0.2190088245613807 -0.2416597638771835 -0.2416597638771835 -0.2416597638771835 -0.245549825717703 -0.245549825717703 -0.245549825717703 -0.2416005488063657 
-0.2416005488063657 -0.2416005488063657 -0.5775900246655779 -0.5775900246655779 -0.5775900246655779 -0.6096241347321705 -0.6096241347321705 -0.6096241347321705 -0.6241475646944152 
-0.6241475646944152 -0.6241475646944152 0.06701080625297011 0.06701080625297011 0.06701080625297011 0.06472238276130912 0.06472238276130912 0.06472238276130912 0.06262567187587217 
0.06262567187587217 0.06262567187587217 -0.5524188575653441 -0.5524188575653441 -0.5524188575653441 -0.5553566278522928 -0.5553566278522928 -0.5553566278522928 -0.5577412079482863 
-0.5577412079482863 -0.5577412079482863 0.3956601786152734 0.3956601786152734 0.3956601786152734 0.3965652153814446 0.3965652153814446 0.3965652153814446 0.1114231982741152 
0.1114231982741152 0.1114231982741152 0.1093340866303511 0.1093340866303511 0.1093340866303511 0.1057142334788192 0.1057142334788192 0.1057142334788192 -0.1580128421846213 
-0.1580128421846213 -0.1580128421846213 -0.1631853022867773 -0.1631853022867773 -0.1631853022867773 -0.1618916825900497 -0.1618916825900497 -0.1618916825900497 -0.20925845170685 
-0.20925845170685 -0.20925845170685 -0.2049554776005983 -0.2049554776005983 -0.2049554776005983 -0.2030408189744571 -0.2030408189744571 -0.2030408189744571 -0.01761736367504455 
-0.01761736367504455 -0.01761736367504455 -0.02229933054521595 -0.02229933054521595 -0.02229933054521595 -0.02428225001673331 -0.02428225001673331 -0.02428225001673331 -0.3076921716400116 
-0.3076921716400116 -0.3076921716400116 -0.3049237232048757 -0.3049237232048757 -0.3049237232048757 -0.305266039447552 -0.305266039447552 -0.305266039447552 0.2087703504698437 
0.2087703504698437 0.2087703504698437 0.1640318035007972 0.1640318035007972 0.1640318035007972 0.1827012999650905 0.1827012999650905 0.1827012999650905 0.2935966626606745 
0.2935966626606745 0.2935966626606745 0.2936585757853368 0.2936585757853368 0.2936585757853368 0.2916550652974024 0.2916550652974024 0.2916550652974024 0.2203986054749258 
0.2203986054749258 0.2203986054749258 0.2225074049328866 0.2225074049328866 0.2225074049328866 -0.3008957417495228 -0.3008957417495228 -0.3008957417495228 -0.2986179234055942 
-0.2986179234055942 -0.2986179234055942 -0.2969589734614408 -0.2969589734614408 -0.2969589734614408 -0.1348232071277507 -0.1348232071277507 -0.1348232071277507 -0.1302114060988866 
-0.1302114060988866 -0.1302114060988866 0.233217216376667 0.233217216376667 0.233217216376667 0.2305513402489509 0.2305513402489509 0.2305513402489509 0.1991960706264967 
0.1991960706264967 0.1991960706264967 0.2025712096948206 0.2025712096948206 0.2025712096948206 -0.1681236217112723 -0.1681236217112723 -0.1681236217112723 -0.1703939627721477 
-0.1703939627721477 -0.1703939627721477 0.5267513913582107 0.5267513913582107 0.5267513913582107 0.5236912492041654 0.5236912492041654 0.5236912492041654 0.191396596827606 
0.191396596827606 0.191396596827606 0.1959602132006829 0.1959602132006829 0.1959602132006829 -0.4672532074008423 -0.4672532074008423 -0.4672532074008423 -0.4650343678683883 
-0.4650343678683883 -0.4650343678683883 0.5756496975386202 0.5756496975386202 0.5756496975386202 0.5733539569982063 0.5733539569982063 0.5733539569982063 -0.3817685874427155 
-0.3817685874427155 -0.3817685874427155 -0.3808739479288704 -0.3808739479288704 -0.3808739479288704 0.2428719356855835 0.2428719356855835 0.2428719356855835 0.3101734373619908 
0.3101734373619908 0.3101734373619908 -0.3413172979664227 -0.3413172979664227 -0.3413172979664227 -0.338874155101172 -0.338874155101172 -0.338874155101172 0.1634279744612225 
0.1634279744612225 0.1634279744612225 0.1610833415978443 0.1610833415978443 0.1610833415978443 -0.1528174259705666 -0.1528174259705666 -0.1528174259705666 -0.1350319850259061 
-0.1350319850259061 -0.1350319850259061 -0.2779440629506695 -0.2779440629506695 -0.2779440629506695 -0.3617685344297064 -0.3617685344297064 -0.3617685344297064 0.6079179296336038 
0.6079179296336038 0.6079179296336038 0.6054330745912029 0.6054330745912029 0.6054330745912029 -0.5282889966993812 -0.5282889966993812 -0.5282889966993812 -0.5304851655043777 
-0.5304851655043777 -0.5304851655043777 -0.5239907669385166 -0.5239907669385166 -0.5239907669385166 -0.5289643801835305 -0.5289643801835305 -0.5289643801835305 0.1552196972410078 
0.1552196972410078 0.1552196972410078 0.1522179896276584 0.1522179896276584 0.1522179896276584 -0.4511466653377236 -0.4511466653377236 -0.4511466653377236 -0.4578368352513889 
-0.4578368352513889 -0.4578368352513889 -0.3206016529529508 -0.3206016529529508 -0.3206016529529508 -0.3262678002939078 -0.3262678002939078 -0.3262678002939078 0.1577403771502794 
0.1577403771502794 0.1577403771502794 0.1591275866661457 0.1591275866661457 0.1591275866661457 -0.4501326946650109 -0.4501326946650109 -0.4501326946650109 -0.4485485494562385 
-0.4485485494562385 -0.4485485494562385 0.6208974322921961 0.6208974322921961 0.6208974322921961 0.6193957206142162 0.6193957206142162 0.6193957206142162 -0.4183222845387871 
-0.4183222845387871 -0.4183222845387871 -0.4209078687606944 -0.4209078687606944 -0.4209078687606944 -0.3711643155938954 -0.3711643155938954 -0.3711643155938954 -0.2710575544787502 
-0.2710575544787502 -0.2710575544787502 -0.2875590626964688 -0.2875590626964688 -0.2875590626964688 -0.2882081439455998 -0.2882081439455998 -0.2882081439455998 -0.3928607726691833 
-0.3928607726691833 -0.3928607726691833 -0.3913274745471069 -0.3913274745471069 -0.3913274745471069 -0.01887353666693006 -0.01887353666693006 -0.01887353666693006 -0.02108692247484939 
-0.02108692247484939 -0.02108692247484939 0.3094725234487946 0.3094725234487946 0.3094725234487946 0.3108324627906397 0.3108324627906397 0.3108324627906397 -0.26281770217788 
-0.26281770217788 -0.26281770217788 -0.2643680221067225 -0.2643680221067225 -0.2643680221067225 0.3252939150082506 0.3252939150082506 0.3252939150082506 0.3271757402017065 
0.3271757402017065 0.3271757402017065 0.2816394843317591 0.2816394843317591 0.2816394843317591 0.2788726409745488 0.2788726409745488 0.2788726409745488 0.2160053811924037 
0.2160053811924037 0.2160053811924037 0.2153849121769073 0.2153849121769073 0.2153849121769073 0.6034206034233344 0.6034206034233344 0.6034206034233344 0.6012646636866132 
0.6012646636866132 0.6012646636866132 -0.2624506432343283 -0.2624506432343283 -0.2624506432343283 0.2465545589274276 0.2465545589274276 0.2465545589274276 0.248960341405344 
0.248960341405344 0.248960341405344 -0.6086832960303403 -0.6086832960303403 -0.6086832960303403 -0.6118676707332207 -0.6118676707332207 -0.6118676707332207 -0.6122627890079027 
-0.6122627890079027 -0.6122627890079027 -0.6109221570098429 -0.6109221570098429 -0.6109221570098429 -0.3890553749076126 -0.3890553749076126 -0.3890553749076126 -0.3875919039940826 
-0.3875919039940826 -0.3875919039940826 0.3599219992754907 0.3599219992754907 0.3599219992754907 0.3625922878000364 0.3625922878000364 0.3625922878000364 0.3626348381309408 
0.3626348381309408 0.3626348381309408 0.3649652383004878 0.3649652383004878 0.3649652383004878 -0.3342015454872902 -0.3342015454872902 -0.3342015454872902 -0.3279025128679152 
-0.3279025128679152 -0.3279025128679152 -0.1295602430771127 -0.1295602430771127 -0.1295602430771127 -0.1239421460102585 -0.1239421460102585 -0.1239421460102585 0.1438579926736208 
0.1438579926736208 0.1438579926736208 0.1458431574630367 0.1458431574630367 0.1458431574630367 -0.1709191986935804 -0.1709191986935804 -0.1709191986935804 -0.202055779105752 
-0.202055779105752 -0.202055779105752 0.3943663633248096 0.3943663633248096 0.3943663633248096 0.03302450990342522 0.03302450990342522 0.03302450990342522 0.03059897570363499 
0.03059897570363499 0.03059897570363499 0.4810212645412358 0.4810212645412358 0.4810212645412358 0.4814013456330907 0.4814013456330907 0.4814013456330907 -0.2835255350255987 
-0.2835255350255987 -0.2835255350255987 -0.2806129640419504 -0.2806129640419504 -0.2806129640419504 -0.2578283568451838 -0.2578283568451838 -0.2578283568451838 -0.2544688454734385 
-0.2544688454734385 -0.2544688454734385 0.1447365922819774 0.1447365922819774 0.1447365922819774 0.1490295232946343 0.1490295232946343 0.1490295232946343 0.4728030233003082 
0.4728030233003082 0.4728030233003082 0.2525863482040863 0.2525863482040863 0.2525863482040863 0.2570523374017646 0.2570523374017646 0.2570523374017646 0.2617560789948671 
0.2617560789948671 0.2617560789948671 0.2629397887581477 0.2629397887581477 0.2629397887581477 -0.5140252185427967 -0.5140252185427967 -0.5140252185427967 -0.5212912696580903 
-0.5212912696580903 -0.5212912696580903 -0.3192309235981445 -0.3192309235981445 -0.3192309235981445 -0.4831735780261295 -0.4831735780261295 -0.4831735780261295 -0.4712367690081392 
-0.4712367690081392 -0.4712367690081392 -0.4692326975978729 -0.4692326975978729 -0.4692326975978729 0.5546907528330535 0.5546907528330535 0.5546907528330535 0.5521437813645933 
0.5521437813645933 0.5521437813645933 -0.2735506143517054 -0.2735506143517054 -0.2735506143517054 -0.2758598044112374 -0.2758598044112374 -0.2758598044112374 0.4700656602381901 
0.4700656602381901 0.4700656602381901 0.4687725004867141 0.4687725004867141 0.4687725004867141 0.1507471017777274 0.1507471017777274 0.1507471017777274 0.1161428934270754 
0.1161428934270754 0.1161428934270754 0.2592091373981714 0.2592091373981714 0.2592091373981714 0.2569555168491758 0.2569555168491758 0.2569555168491758 0.04169508634498629 
0.04169508634498629 0.04169508634498629 0.03960472332871178 0.03960472332871178 0.03960472332871178 -0.097180766847524 -0.097180766847524 -0.097180766847524 -0.1003363823845775 
-0.1003363823845775 -0.1003363823845775 -0.2674957164813957 -0.2674957164813957 -0.2674957164813957 -0.2699084676275228 -0.2699084676275228 -0.2699084676275228 -0.01869814494388296 
-0.01869814494388296 -0.01869814494388296 -0.01924839874352534 -0.01924839874352534 -0.01924839874352534 -0.3455894055749976 -0.3455894055749976 -0.3455894055749976 -0.4055984178786434 
-0.4055984178786434 -0.4055984178786434 -0.09653725727378301 -0.09653725727378301 -0.09653725727378301 -0.5608142252232236 -0.5608142252232236 -0.5608142252232236 -0.5550319721542225 
-0.5550319721542225 -0.5550319721542225 -0.4481583731258543 -0.4481583731258543 -0.4481583731258543 -0.443543095135631 -0.443543095135631 -0.443543095135631 0.595741704479187 
0.595741704479187 0.595741704479187 0.5913796221248047 0.5913796221248047 0.5913796221248047 0.3947326242258478 0.3947326242258478 0.3947326242258478 0.3908595315615676 
0.3908595315615676 0.3908595315615676 0.1653547739739439 0.1653547739739439 0.1653547739739439 0.159472670609949 0.159472670609949 0.159472670609949 0.4089257773952333 
0.4089257773952333 0.4089257773952333 0.4004111833730153 0.4004111833730153 0.4004111833730153 -0.1017546663710559 -0.1017546663710559 -0.1017546663710559 -0.09607970302029718 
-0.09607970302029718 -0.09607970302029718 -0.2953605859261792 -0.2953605859261792 -0.2953605859261792 -0.2990442824926504 -0.2990442824926504 -0.2990442824926504 -0.6555110609407968 
-0.6555110609407968 -0.6555110609407968 -0.6504616820080239 -0.6504616820080239 -0.6504616820080239 -0.4061453035966048 -0.4061453035966048 -0.4061453035966048 -0.4645793379458077 
-0.4645793379458077 -0.4645793379458077 -0.3040135545399328 -0.3040135545399328 -0.3040135545399328 -0.2806089125169352 -0.2806089125169352 -0.2806089125169352 -0.2472122513483867 
-0.2472122513483867 -0.2472122513483867 -0.2436165482987629 -0.2436165482987629 -0.2436165482987629 0.09004421486657778 0.09004421486657778 0.09004421486657778 0.2234249421138628 
0.2234249421138628 0.2234249421138628 0.3173741173889191 0.3173741173889191 0.3173741173889191 0.3174905312136038 0.3174905312136038 0.3174905312136038 0.1044389966406332 
0.1044389966406332 0.1044389966406332 0.09927581876973207 0.09927581876973207 0.09927581876973207 -0.3034881031611047 -0.3034881031611047 -0.3034881031611047 -0.2708229299048983 
-0.2708229299048983 -0.2708229299048983 -0.4898926862532862 -0.4898926862532862 -0.4898926862532862 0.4531866457778195 0.4531866457778195 0.4531866457778195 0.4504981729796261 
0.4504981729796261 0.4504981729796261 0.3892105439274097 0.3892105439274097 0.3892105439274097 0.3947107552190137 0.3947107552190137 0.3947107552190137 -0.1435002991443792 
-0.1435002991443792 -0.1435002991443792 -0.1365552943082523 -0.1365552943082523 -0.1365552943082523 -0.1962672098341899 -0.1962672098341899 -0.1962672098341899 -0.1934898036051893 
-0.1934898036051893 -0.1934898036051893 0.2932070896807468 0.2932070896807468 0.2932070896807468 0.3363584181825627 0.3363584181825627 0.3363584181825627 -0.4419215126778954 
-0.4419215126778954 -0.4419215126778954 -0.4416897009986048 -0.4416897009986048 -0.4416897009986048 -0.4184655779379294 -0.4184655779379294 -0.4184655779379294 -0.412945299936846 
-0.412945299936846 -0.412945299936846 0.4888064442088297 0.4888064442088297 0.4888064442088297 0.489685757700342 0.489685757700342 0.489685757700342 -0.2007815156689527 
-0.2007815156689527 -0.2007815156689527 -0.1943277258584897 -0.1943277258584897 -0.1943277258584897 -0.08338027667669956 -0.08338027667669956 -0.08338027667669956 -0.06059869724228004 
-0.06059869724228004 -0.06059869724228004 -0.3188501314434017 -0.3188501314434017 -0.3188501314434017 -0.323221324791601 -0.323221324791601 -0.323221324791601 0.2595504449246034 
0.2595504449246034 0.2595504449246034 0.2652318541668962 0.2652318541668962 0.2652318541668962 0.2950168546524111 0.2950168546524111 0.2950168546524111 0.287801717464937 
0.287801717464937 0.287801717464937 0.5543586093403905 0.5543586093403905 0.5543586093403905 0.5511899100344586 0.5511899100344586 0.5511899100344586 0.4427425918880669 
0.4427425918880669 0.4427425918880669 0.4476904259368961 0.4476904259368961 0.4476904259368961 -0.142622748766024 -0.142622748766024 -0.142622748766024 -0.1351360644012499 
-0.1351360644012499 -0.1351360644012499 -0.2093403287261489 -0.2093403287261489 -0.2093403287261489 -0.2180306388049624 -0.2180306388049624 -0.2180306388049624 0.4410851851719094 
0.4410851851719094 0.4410851851719094 0.441424456669636 0.441424456669636 0.441424456669636 -0.4937817980505116 -0.4937817980505116 -0.4937817980505116 -0.4968654512369707 
-0.4968654512369707 -0.4968654512369707 -0.2958602516878688 -0.2958602516878688 -0.2958602516878688 -0.3014024105280935 -0.3014024105280935 -0.3014024105280935 0.2353515923000851 
0.2353515923000851 0.2353515923000851 0.2408755428310252 0.2408755428310252 0.2408755428310252 0.5692650932583418 0.5692650932583418 0.5692650932583418 0.5652994657571921 
0.5652994657571921 0.5652994657571921 -0.1924738493828875 -0.1924738493828875 -0.1924738493828875 -0.193593018777066 -0.193593018777066 -0.193593018777066 -0.4072775149339896 
-0.4072775149339896 -0.4072775149339896 -0.4112492535595577 -0.4112492535595577 -0.4112492535595577 0.1221236225950736 0.1221236225950736 0.1221236225950736 0.1200165970578192 
0.1200165970578192 0.1200165970578192 -0.2951008654717972 -0.2951008654717972 -0.2951008654717972 -0.2881184093562875 -0.2881184093562875 -0.2881184093562875 0.1960430464934571 
0.1960430464934571 0.1960430464934571 0.2004370207370516 0.2004370207370516 0.2004370207370516 -0.4077159024230539 -0.4077159024230539 -0.4077159024230539 -0.4070157417532108 
-0.4070157417532108 -0.4070157417532108 0.06173922730859941 0.06173922730859941 0.06173922730859941 0.05733309819772099 0.05733309819772099 0.05733309819772099 0.2670382553185531 
0.2670382553185531 0.2670382553185531 0.2517329511394165 0.2517329511394165 0.2517329511394165 0.04716042693334135 0.04716042693334135 0.04716042693334135 -0.149819728856717 
-0.149819728856717 -0.149819728856717 0.1575781780943608 0.1575781780943608 0.1575781780943608 0.2023477472731084 0.2023477472731084 0.2023477472731084 -0.3064167851206915 
-0.3064167851206915 -0.3064167851206915 -0.304894138939434 -0.304894138939434 -0.304894138939434 -0.09763101828578061 -0.09763101828578061 -0.09763101828578061 -0.1067030624824126 
-0.1067030624824126 -0.1067030624824126 -0.324346164381327 -0.324346164381327 -0.324346164381327 -0.3226549955666396 -0.3226549955666396 -0.3226549955666396 0.3091141440855137 
0.3091141440855137 0.3091141440855137 0.3012871870954002 0.3012871870954002 0.3012871870954002 0.4510186788835245 0.4510186788835245 0.4510186788835245 0.4172426318215999 
0.4172426318215999 0.4172426318215999 -0.2460667638262703 -0.2460667638262703 -0.2460667638262703 -0.2518159704906118 -0.2518159704906118 -0.2518159704906118 -0.2715152223536975 
-0.2715152223536975 -0.2715152223536975 -0.2660381034969188 -0.2660381034969188 -0.2660381034969188 0.5630403065934446 0.5630403065934446 0.5630403065934446 0.567858403800706 
0.567858403800706 0.567858403800706 0.2401233664368882 0.2401233664368882 0.2401233664368882 0.2353632341267612 0.2353632341267612 0.2353632341267612 0.5392017077100287 
0.5392017077100287 0.5392017077100287 0.5354309418355472 0.5354309418355472 0.5354309418355472 0.4160122485090049 0.4160122485090049 0.4160122485090049 0.4100298050169102 
0.4100298050169102 0.4100298050169102 0.4582566298157524 0.4582566298157524 0.4582566298157524 0.4376717492459069 0.4376717492459069 0.4376717492459069 0.405798108491372 
0.405798108491372 0.405798108491372 0.4031050115111059 0.4031050115111059 0.4031050115111059 -0.3956482719701307 -0.3956482719701307 -0.3956482719701307 -0.39767146835922 
-0.39767146835922 -0.39767146835922 -0.4003237355227179 -0.4003237355227179 -0.4003237355227179 -0.2550911538772674 -0.2550911538772674 -0.2550911538772674 -0.2480747070383366 
-0.2480747070383366 -0.2480747070383366 -0.2316849704806694 -0.2316849704806694 -0.2316849704806694 -0.4902915712100864 -0.4902915712100864 -0.4902915712100864 -0.4746963253850108 
-0.4746963253850108 -0.4746963253850108 -0.4112706457424796 -0.4112706457424796 -0.4112706457424796 -0.05341029827500394 -0.05341029827500394 -0.05341029827500394 -0.05551265308757102 
-0.05551265308757102 -0.05551265308757102 -0.05196325242663863 -0.05196325242663863 -0.05196325242663863 -0.3715359910063527 -0.3715359910063527 -0.3715359910063527 -0.3694803065083539 
-0.3694803065083539 -0.3694803065083539 -0.3684233298718267 -0.3684233298718267 -0.3684233298718267 -0.4616816979884432 -0.4616816979884432 -0.4616816979884432 -0.4568988693179048 
-0.4568988693179048 -0.4568988693179048 -0.4543193196593465 -0.4543193196593465 -0.4543193196593465 0.5729385016555733 0.5729385016555733 0.5729385016555733 0.01549294225522342 
0.01549294225522342 0.01549294225522342 -0.04002812176929299 -0.04002812176929299 -0.04002812176929299 -0.04477345535550723 -0.04477345535550723 -0.04477345535550723 0.1936988797023294 
0.1936988797023294 0.1936988797023294 0.1963496180566638 0.1963496180566638 0.1963496180566638 0.1957355375060448 0.1957355375060448 0.1957355375060448 0.1627471384831308 
0.1627471384831308 0.1627471384831308 0.1862560108882749 0.1862560108882749 0.1862560108882749 -0.06883715769425557 -0.06883715769425557 -0.06883715769425557 -0.4123946480902502 
-0.4123946480902502 -0.4123946480902502 -0.4042421103393867 -0.4042421103393867 -0.4042421103393867 -0.3263249349360233 -0.3263249349360233 -0.3263249349360233 -0.05213959343760797 
-0.05213959343760797 -0.05213959343760797 -0.02602358207861322 -0.02602358207861322 -0.02602358207861322 0.02334335098301386 0.02334335098301386 0.02334335098301386 -0.1884310372471573 
-0.1884310372471573 -0.1884310372471573 -0.1980506045327038 -0.1980506045327038 -0.1980506045327038 -0.1964872316510959 -0.1964872316510959 -0.1964872316510959 0.450786180253391 
0.450786180253391 0.450786180253391 0.4474822862697303 0.4474822862697303 0.4474822862697303 0.4454805020501258 0.4454805020501258 0.4454805020501258 -0.3174595877164945 
-0.3174595877164945 -0.3174595877164945 -0.3152633393737977 -0.3152633393737977 -0.3152633393737977 -0.3153781378906817 -0.3153781378906817 -0.3153781378906817 0.1563208927671657 
0.1563208927671657 0.1563208927671657 0.1851934136313134 0.1851934136313134 0.1851934136313134 0.2224163924947725 0.2224163924947725 0.2224163924947725 -0.006188181658527474 
-0.006188181658527474 -0.006188181658527474 -0.2508230702046945 -0.2508230702046945 -0.2508230702046945 -0.356104270349015 -0.356104270349015 -0.356104270349015 -0.5695516896334005 
-0.5695516896334005 -0.5695516896334005 -0.5995914591013876 -0.5995914591013876 -0.5995914591013876 -0.602616783185759 -0.602616783185759 -0.602616783185759 -0.3543168451941994 
-0.3543168451941994 -0.3543168451941994 -0.3519340006039682 -0.3519340006039682 -0.3519340006039682 -0.3539206204045439 -0.3539206204045439 -0.3539206204045439 0.4917903749967583 
0.4917903749967583 0.4917903749967583 0.4942005799055991 0.4942005799055991 0.4942005799055991 0.4961900898719442 0.4961900898719442 0.4961900898719442 0.5975168228309687 
0.5975168228309687 0.5975168228309687 0.6009233979217314 0.6009233979217314 0.6009233979217314 0.6011250733779475 0.6011250733779475 0.6011250733779475 0.3428377708624343 
0.3428377708624343 0.3428377708624343 0.3451123720234644 0.3451123720234644 0.3451123720234644 0.3475051568185252 0.3475051568185252 0.3475051568185252 -0.4372205360412856 
-0.4372205360412856 -0.4372205360412856 -0.4349041499704146 -0.4349041499704146 -0.4349041499704146 -0.4330247953994435 -0.4330247953994435 -0.4330247953994435 0.2089246596131884 
0.2089246596131884 0.2089246596131884 0.2107848142087116 0.2107848142087116 0.2107848142087116 0.213275393042891 0.213275393042891 0.213275393042891 -0.3801545489837224 
-0.3801545489837224 -0.3801545489837224 -0.4408903289906101 -0.4408903289906101 -0.4408903289906101 -0.4148168767836025 -0.4148168767836025 -0.4148168767836025 -0.4542238482656196 
-0.4542238482656196 -0.4542238482656196 -0.4517511717521177 -0.4517511717521177 -0.4517511717521177 -0.4494751128690924 -0.4494751128690924 -0.4494751128690924 0.4049958966929131 
0.4049958966929131 0.4049958966929131 0.3993635802439248 0.3993635802439248 0.3993635802439248 0.397332096630538 0.397332096630538 0.397332096630538 -0.4775767795912953 
-0.4775767795912953 -0.4775767795912953 -0.4767006687780211 -0.4767006687780211 -0.4767006687780211 -0.4745337272661219 -0.4745337272661219 -0.4745337272661219 -0.3869712150820704 