Title = Triangle100
FileType = Solution
Variables = q
Zone T = Triangle100
ZoneType = FETriangle
Nodes = 99072
Elements = 33024
DataPacking = Block
StrandID = 8
SolutionTime = 0.7000000000000001
0.1658338860479687 0.1658338860479687 0.1658338860479687 0.1614990447743243 0.1614990447743243 0.1614990447743243 0.1589533568736839 0.1589533568736839 0.1589533568736839 -0.09297755489755621 
-0.09297755489755621 -0.09297755489755621 -0.08530791291488188 -0.08530791291488188 -0.08530791291488188 0.2876092185707132 0.2876092185707132 0.2876092185707132 0.2936081604600435 
0.2936081604600435 0.2936081604600435 -0.3805328336958922 -0.3805328336958922 -0.3805328336958922 -0.3839098743792438 -0.3839098743792438 -0.3839098743792438 0.7248083052414992 
0.7248083052414992 0.7248083052414992 0.7348998769499048 0.7348998769499048 0.7348998769499048 0.550702245513095 0.550702245513095 0.550702245513095 0.5493135597298116 
0.5493135597298116 0.5493135597298116 -0.1950943890927773 -0.1950943890927773 -0.1950943890927773 -0.1985558178790384 -0.1985558178790384 -0.1985558178790384 0.1423838201992108 
0.1423838201992108 0.1423838201992108 0.1342402629982155 0.1342402629982155 0.1342402629982155 0.5380816110232414 0.5380816110232414 0.5380816110232414 0.5355474347989088 
0.5355474347989088 0.5355474347989088 0.360827174189038 0.360827174189038 0.360827174189038 0.3495536689217076 0.3495536689217076 0.3495536689217076 0.3455565873438811 
0.3455565873438811 0.3455565873438811 0.6966715152522506 0.6966715152522506 0.6966715152522506 0.6948036362968528 0.6948036362968528 0.6948036362968528 -0.3707824919838379 
-0.3707824919838379 -0.3707824919838379 -0.3710800007562364 -0.3710800007562364 -0.3710800007562364 -0.3918443951539131 -0.3918443951539131 -0.3918443951539131 -0.4001863258496453 
-0.4001863258496453 -0.4001863258496453 -0.1181773279542599 -0.1181773279542599 -0.1181773279542599 -0.1160801196907422 -0.1160801196907422 -0.1160801196907422 -0.6491387694676564 
-0.6491387694676564 -0.6491387694676564 -0.6515149559742532 -0.6515149559742532 -0.6515149559742532 -0.6548994699777604 -0.6548994699777604 -0.6548994699777604 0.7196130677019356 
0.7196130677019356 0.7196130677019356 0.716552982378575 0.716552982378575 0.716552982378575 0.7141767300941685 0.7141767300941685 0.7141767300941685 -0.3426477331956729 
-0.3426477331956729 -0.3426477331956729 -0.3397160301814103 -0.3397160301814103 -0.3397160301814103 -0.3484743842709681 -0.3484743842709681 -0.3484743842709681 0.5393398416480735 
0.5393398416480735 0.5393398416480735 0.5430393794752114 0.5430393794752114 0.5430393794752114 0.5465009069318763 0.5465009069318763 0.5465009069318763 -0.2458531005628781 
-0.2458531005628781 -0.2458531005628781 -0.2790883991082469 -0.2790883991082469 -0.2790883991082469 -0.326157440642319 -0.326157440642319 -0.326157440642319 0.06805498202621983 
0.06805498202621983 0.06805498202621983 0.06525299864299559 0.06525299864299559 0.06525299864299559 0.06205270771371647 0.06205270771371647 0.06205270771371647 0.07146444378972239 
0.07146444378972239 0.07146444378972239 0.07398629307207943 0.07398629307207943 0.07398629307207943 0.119538225972886 0.119538225972886 0.119538225972886 0.2323036097905223 
0.2323036097905223 0.2323036097905223 0.228634309931089 0.228634309931089 0.228634309931089 -0.4105004216844211 -0.4105004216844211 -0.4105004216844211 -0.4058266575950844 
-0.4058266575950844 -0.4058266575950844 -0.5736922781488794 -0.5736922781488794 -0.5736922781488794 -0.5717197248984919 -0.5717197248984919 -0.5717197248984919 0.05497845359296392 
0.05497845359296392 0.05497845359296392 0.05882436201131509 0.05882436201131509 0.05882436201131509 -0.3288422339954328 -0.3288422339954328 -0.3288422339954328 -0.3463605980391017 
-0.3463605980391017 -0.3463605980391017 0.1891158731017852 0.1891158731017852 0.1891158731017852 0.1879412475915523 0.1879412475915523 0.1879412475915523 -0.2638382942532529 
-0.2638382942532529 -0.2638382942532529 -0.2610177449221114 -0.2610177449221114 -0.2610177449221114 0.2250157523426894 0.2250157523426894 0.2250157523426894 0.2195076589316364 
0.2195076589316364 0.2195076589316364 -0.185963277260945 -0.185963277260945 -0.185963277260945 -0.1892756250257086 -0.1892756250257086 -0.1892756250257086 -0.3957637677405595 
-0.3957637677405595 -0.3957637677405595 -0.3900867081023698 -0.3900867081023698 -0.3900867081023698 0.3918896699084602 0.3918896699084602 0.3918896699084602 0.3888265206706688 
0.3888265206706688 0.3888265206706688 -0.164683783916061 -0.164683783916061 -0.164683783916061 -0.1704329899384851 -0.1704329899384851 -0.1704329899384851 -0.0263812043612877 
-0.0263812043612877 -0.0263812043612877 -0.02325909319511025 -0.02325909319511025 -0.02325909319511025 -0.3141197807020204 -0.3141197807020204 -0.3141197807020204 -0.3113039061160295 
-0.3113039061160295 -0.3113039061160295 -0.5247407903153967 -0.5247407903153967 -0.5247407903153967 -0.5040329125048665 -0.5040329125048665 -0.5040329125048665 -0.03632346060199209 
-0.03632346060199209 -0.03632346060199209 -0.03367763109373074 -0.03367763109373074 -0.03367763109373074 0.3574501604209739 0.3574501604209739 0.3574501604209739 0.3523066677628022 
0.3523066677628022 0.3523066677628022 -0.3618630144249156 -0.3618630144249156 -0.3618630144249156 -0.3683771008607775 -0.3683771008607775 -0.3683771008607775 0.2033567199427385 
0.2033567199427385 0.2033567199427385 0.2002891429209163 0.2002891429209163 0.2002891429209163 -0.08166751433832269 -0.08166751433832269 -0.08166751433832269 -0.07041037755640044 
-0.07041037755640044 -0.07041037755640044 0.6643797712524613 0.6643797712524613 0.6643797712524613 0.2947848174260242 0.2947848174260242 0.2947848174260242 0.5739014297006829 
0.5739014297006829 0.5739014297006829 0.5439996693927379 0.5439996693927379 0.5439996693927379 0.5372032107789224 0.5372032107789224 0.5372032107789224 -0.1084679354535294 
-0.1084679354535294 -0.1084679354535294 -0.1189255791545954 -0.1189255791545954 -0.1189255791545954 0.2380789785699499 0.2380789785699499 0.2380789785699499 0.2315322727595804 
0.2315322727595804 0.2315322727595804 -0.2118302785494608 -0.2118302785494608 -0.2118302785494608 -0.2054780237925379 -0.2054780237925379 -0.2054780237925379 -0.3539476380599578 
-0.3539476380599578 -0.3539476380599578 -0.3578110596817303 -0.3578110596817303 -0.3578110596817303 0.2320523578813223 0.2320523578813223 0.2320523578813223 0.227566528361316 
0.227566528361316 0.227566528361316 0.1783840012463889 0.1783840012463889 0.1783840012463889 0.17097045261193 0.17097045261193 0.17097045261193 0.1797115091962396 
0.1797115091962396 0.1797115091962396 0.1741723827837147 0.1741723827837147 0.1741723827837147 -0.2901990020708151 -0.2901990020708151 -0.2901990020708151 -0.2546064381499306 
-0.2546064381499306 -0.2546064381499306 -0.1037118803710513 -0.1037118803710513 -0.1037118803710513 -0.07680031008414567 -0.07680031008414567 -0.07680031008414567 0.01270278655240029 
0.01270278655240029 0.01270278655240029 0.01554165782657322 0.01554165782657322 0.01554165782657322 -0.3148070496542635 -0.3148070496542635 -0.3148070496542635 -0.2945570953323855 
-0.2945570953323855 -0.2945570953323855 -0.384784760242346 -0.384784760242346 -0.384784760242346 -0.3925508444274464 -0.3925508444274464 -0.3925508444274464 0.02595241451246101 
0.02595241451246101 0.02595241451246101 0.03757152849691574 0.03757152849691574 0.03757152849691574 0.3233606523926299 0.3233606523926299 0.3233606523926299 0.0508605104999395 
0.0508605104999395 0.0508605104999395 0.2894081998270219 0.2894081998270219 0.2894081998270219 0.2911669495162532 0.2911669495162532 0.2911669495162532 0.294161156517422 
0.294161156517422 0.294161156517422 -0.3248964279185268 -0.3248964279185268 -0.3248964279185268 -0.3302668225877841 -0.3302668225877841 -0.3302668225877841 -0.3250046868036981 
-0.3250046868036981 -0.3250046868036981 -0.3404819544649473 -0.3404819544649473 -0.3404819544649473 -0.3363682472252321 -0.3363682472252321 -0.3363682472252321 -0.3339036619354042 
-0.3339036619354042 -0.3339036619354042 0.08968595452000475 0.08968595452000475 0.08968595452000475 0.08660581702741008 0.08660581702741008 0.08660581702741008 0.08378360734027558 
0.08378360734027558 0.08378360734027558 -0.180411276974147 -0.180411276974147 -0.180411276974147 -0.2414800421076889 -0.2414800421076889 -0.2414800421076889 -0.2027790558860381 
-0.2027790558860381 -0.2027790558860381 0.5329346394765204 0.5329346394765204 0.5329346394765204 0.5341949051870443 0.5341949051870443 0.5341949051870443 0.1496085528949846 
0.1496085528949846 0.1496085528949846 0.1467899208681345 0.1467899208681345 0.1467899208681345 0.1418999617333608 0.1418999617333608 0.1418999617333608 -0.2123892710225642 
-0.2123892710225642 -0.2123892710225642 -0.2193853668561087 -0.2193853668561087 -0.2193853668561087 -0.21764344823172 -0.21764344823172 -0.21764344823172 -0.2814599568853748 
-0.2814599568853748 -0.2814599568853748 -0.2756941799204987 -0.2756941799204987 -0.2756941799204987 -0.2731039213319756 -0.2731039213319756 -0.2731039213319756 -0.02305719560392074 
-0.02305719560392074 -0.02305719560392074 -0.02938199025750789 -0.02938199025750789 -0.02938199025750789 -0.03203389405718437 -0.03203389405718437 -0.03203389405718437 -0.3828088094647815 
-0.3828088094647815 -0.3828088094647815 -0.3791244879114125 -0.3791244879114125 -0.3791244879114125 -0.4017142596946117 -0.4017142596946117 -0.4017142596946117 0.1784198911142246 
0.1784198911142246 0.1784198911142246 0.1734127384855843 0.1734127384855843 0.1734127384855843 0.17067610642064 0.17067610642064 0.17067610642064 0.3951766181112082 
0.3951766181112082 0.3951766181112082 0.3953319472080107 0.3953319472080107 0.3953319472080107 0.3926377902503109 0.3926377902503109 0.3926377902503109 0.2959702365602954 
0.2959702365602954 0.2959702365602954 0.2987879965136543 0.2987879965136543 0.2987879965136543 -0.4049790537894223 -0.4049790537894223 -0.4049790537894223 -0.4018902095254373 
-0.4018902095254373 -0.4018902095254373 -0.3996402892005922 -0.3996402892005922 -0.3996402892005922 -0.1811902829709907 -0.1811902829709907 -0.1811902829709907 -0.1749477170689068 
-0.1749477170689068 -0.1749477170689068 0.3135415510410485 0.3135415510410485 0.3135415510410485 0.3099467139307646 0.3099467139307646 0.3099467139307646 0.2677474307179943 
0.2677474307179943 0.2677474307179943 0.2723876856537694 0.2723876856537694 0.2723876856537694 -0.2260064221645518 -0.2260064221645518 -0.2260064221645518 -0.2290870439895967 
-0.2290870439895967 -0.2290870439895967 0.7068419215800279 0.7068419215800279 0.7068419215800279 0.7029023567733816 0.7029023567733816 0.7029023567733816 0.2574297487788698 
0.2574297487788698 0.2574297487788698 0.2635784656939628 0.2635784656939628 0.2635784656939628 -0.6290142459563042 -0.6290142459563042 -0.6290142459563042 -0.6260580244582377 
-0.6260580244582377 -0.6260580244582377 0.2018593830134764 0.2018593830134764 0.2018593830134764 0.1993512859698104 0.1993512859698104 0.1993512859698104 -0.5143164860367951 
-0.5143164860367951 -0.5143164860367951 -0.5131229046727349 -0.5131229046727349 -0.5131229046727349 -0.06104193492200205 -0.06104193492200205 -0.06104193492200205 -0.05729315590981972 
-0.05729315590981972 -0.05729315590981972 -0.4416489077913134 -0.4416489077913134 -0.4416489077913134 -0.4492017813127369 -0.4492017813127369 -0.4492017813127369 0.2191451162775771 
0.2191451162775771 0.2191451162775771 0.2160047581166748 0.2160047581166748 0.2160047581166748 -0.2194319205205655 -0.2194319205205655 -0.2194319205205655 -0.2112637230801431 
-0.2112637230801431 -0.2112637230801431 0.02531797461322607 0.02531797461322607 0.02531797461322607 0.02125398799610948 0.02125398799610948 0.02125398799610948 0.2439194632686554 
0.2439194632686554 0.2439194632686554 0.2406518511546103 0.2406518511546103 0.2406518511546103 -0.1470692373595607 -0.1470692373595607 -0.1470692373595607 -0.1439382534644911 
-0.1439382534644911 -0.1439382534644911 -0.142032945220217 -0.142032945220217 -0.142032945220217 -0.1445820316081679 -0.1445820316081679 -0.1445820316081679 0.2086258212298944 
0.2086258212298944 0.2086258212298944 0.2045757342731053 0.2045757342731053 0.2045757342731053 -0.05682287150113644 -0.05682287150113644 -0.05682287150113644 -0.1073031127962305 
-0.1073031127962305 -0.1073031127962305 -0.4317442360593651 -0.4317442360593651 -0.4317442360593651 -0.4393908252373291 -0.4393908252373291 -0.4393908252373291 0.2119281878447715 
0.2119281878447715 0.2119281878447715 0.2137559921745467 0.2137559921745467 0.2137559921745467 -0.6060650097366953 -0.6060650097366953 -0.6060650097366953 -0.6039711557880829 
-0.6039711557880829 -0.6039711557880829 0.2656965941007277 0.2656965941007277 0.2656965941007277 0.2633641850036914 0.2633641850036914 0.2633641850036914 -0.5635713399020974 
-0.5635713399020974 -0.5635713399020974 -0.5670456028753212 -0.5670456028753212 -0.5670456028753212 -0.1225494471537313 -0.1225494471537313 -0.1225494471537313 -0.1177164131708658 
-0.1177164131708658 -0.1177164131708658 -0.3866440444620424 -0.3866440444620424 -0.3866440444620424 -0.387585922075364 -0.387585922075364 -0.387585922075364 -0.5292618790984613 
-0.5292618790984613 -0.5292618790984613 -0.527170956989911 -0.527170956989911 -0.527170956989911 -0.02479752731898094 -0.02479752731898094 -0.02479752731898094 -0.02775158233233108 
-0.02775158233233108 -0.02775158233233108 0.4166710798769859 0.4166710798769859 0.4166710798769859 0.4185359566560876 0.4185359566560876 0.4185359566560876 -0.3526423123645198 
-0.3526423123645198 -0.3526423123645198 -0.3552633076278394 -0.3552633076278394 -0.3552633076278394 0.4378494576811987 0.4378494576811987 0.4378494576811987 0.4403822139874309 
0.4403822139874309 0.4403822139874309 0.3791302088264652 0.3791302088264652 0.3791302088264652 0.3753131661473164 0.3753131661473164 0.3753131661473164 0.2882344770523815 
0.2882344770523815 0.2882344770523815 0.2854288364583632 0.2854288364583632 0.2854288364583632 0.2381700615546237 0.2381700615546237 0.2381700615546237 0.235311792390942 
0.235311792390942 0.235311792390942 -0.351821913645734 -0.351821913645734 -0.351821913645734 0.3312094174105668 0.3312094174105668 0.3312094174105668 0.3344227361554953 
0.3344227361554953 0.3344227361554953 -0.2459525972295591 -0.2459525972295591 -0.2459525972295591 -0.249800833518743 -0.249800833518743 -0.249800833518743 -0.2594829324520712 
-0.2594829324520712 -0.2594829324520712 -0.2567583618043111 -0.2567583618043111 -0.2567583618043111 -0.5230820614877076 -0.5230820614877076 -0.5230820614877076 -0.5212307441712412 
-0.5212307441712412 -0.5212307441712412 0.4823325687326244 0.4823325687326244 0.4823325687326244 0.4857524743452957 0.4857524743452957 0.4857524743452957 0.4880931713130899 
0.4880931713130899 0.4880931713130899 0.4912103717206964 0.4912103717206964 0.4912103717206964 -0.4465650073157805 -0.4465650073157805 -0.4465650073157805 -0.4248706255207435 
-0.4248706255207435 -0.4248706255207435 -0.1710050193481662 -0.1710050193481662 -0.1710050193481662 -0.1661599931676095 -0.1661599931676095 -0.1661599931676095 0.1934230464660022 
0.1934230464660022 0.1934230464660022 0.1961008763387361 0.1961008763387361 0.1961008763387361 -0.1563277508338428 -0.1563277508338428 -0.1563277508338428 -0.1531768943347943 
-0.1531768943347943 -0.1531768943347943 0.5312388249798921 0.5312388249798921 0.5312388249798921 0.04389905549977244 0.04389905549977244 0.04389905549977244 0.04064349672608152 
0.04064349672608152 0.04064349672608152 0.4427589786165549 0.4427589786165549 0.4427589786165549 0.5360917498265076 0.5360917498265076 0.5360917498265076 -0.3816850978623867 
-0.3816850978623867 -0.3816850978623867 -0.3777640397340701 -0.3777640397340701 -0.3777640397340701 -0.3463711987254886 -0.3463711987254886 -0.3463711987254886 -0.341831394378263 
-0.341831394378263 -0.341831394378263 0.1943912135435839 0.1943912135435839 0.1943912135435839 0.2001961330531447 0.2001961330531447 0.2001961330531447 0.3462938927678364 
0.3462938927678364 0.3462938927678364 0.339734911699774 0.339734911699774 0.339734911699774 0.3458626814048476 0.3458626814048476 0.3458626814048476 0.2824553355799862 
0.2824553355799862 0.2824553355799862 0.2500872597186322 0.2500872597186322 0.2500872597186322 -0.1815207778453211 -0.1815207778453211 -0.1815207778453211 -0.1786713855367171 
-0.1786713855367171 -0.1786713855367171 -0.2620915231415902 -0.2620915231415902 -0.2620915231415902 -0.2625611747755565 -0.2625611747755565 -0.2625611747755565 -0.6342794859921852 
-0.6342794859921852 -0.6342794859921852 -0.6315730005338949 -0.6315730005338949 -0.6315730005338949 0.7428515580197759 0.7428515580197759 0.7428515580197759 0.7399447517500695 
0.7399447517500695 0.7399447517500695 -0.3673960866686024 -0.3673960866686024 -0.3673960866686024 -0.3704709975835714 -0.3704709975835714 -0.3704709975835714 0.07759545982307657 
0.07759545982307657 0.07759545982307657 0.07741559987063212 0.07741559987063212 0.07741559987063212 0.1566927529479615 0.1566927529479615 0.1566927529479615 0.1479040002635621 
0.1479040002635621 0.1479040002635621 0.3486983728143443 0.3486983728143443 0.3486983728143443 0.3456705649879147 0.3456705649879147 0.3456705649879147 0.05545732294096004 
0.05545732294096004 0.05545732294096004 0.05264848387772365 0.05264848387772365 0.05264848387772365 -0.1299718226259968 -0.1299718226259968 -0.1299718226259968 -0.1341686967206076 
-0.1341686967206076 -0.1341686967206076 -0.3446038046421685 -0.3446038046421685 -0.3446038046421685 -0.341847190634564 -0.341847190634564 -0.341847190634564 -0.02459568066437785 
-0.02459568066437785 -0.02459568066437785 -0.02533679609698321 -0.02533679609698321 -0.02533679609698321 -0.4654675213873075 -0.4654675213873075 -0.4654675213873075 -0.5462701213485139 
-0.5462701213485139 -0.5462701213485139 -0.1291413146739065 -0.1291413146739065 -0.1291413146739065 -0.1816040185646297 -0.1816040185646297 -0.1816040185646297 -0.1742461689594879 
-0.1742461689594879 -0.1742461689594879 -0.4123150033674434 -0.4123150033674434 -0.4123150033674434 -0.482233057921657 -0.482233057921657 -0.482233057921657 0.2279249827237298 
0.2279249827237298 0.2279249827237298 0.2222646639776281 0.2222646639776281 0.2222646639776281 0.5312854647025855 0.5312854647025855 0.5312854647025855 0.5261658758752142 
0.5261658758752142 0.5261658758752142 0.2222964918813759 0.2222964918813759 0.2222964918813759 0.2143618758937729 0.2143618758937729 0.2143618758937729 0.5373355414908901 
0.5373355414908901 0.5373355414908901 0.5130931054741604 0.5130931054741604 0.5130931054741604 -0.1350868148167136 -0.1350868148167136 -0.1350868148167136 -0.128687312686003 
-0.128687312686003 -0.128687312686003 -0.3975756972476142 -0.3975756972476142 -0.3975756972476142 -0.402502138804663 -0.402502138804663 -0.402502138804663 -0.3080899351322891 
-0.3080899351322891 -0.3080899351322891 -0.3012672957188041 -0.3012672957188041 -0.3012672957188041 -0.1365903594993335 -0.1365903594993335 -0.1365903594993335 -0.1442115261561576 
-0.1442115261561576 -0.1442115261561576 -0.3988438770593198 -0.3988438770593198 -0.3988438770593198 -0.3044101695756116 -0.3044101695756116 -0.3044101695756116 -0.3318192802659816 
-0.3318192802659816 -0.3318192802659816 -0.3281413789951398 -0.3281413789951398 -0.3281413789951398 0.1090432613666067 0.1090432613666067 0.1090432613666067 0.112911325467045 
0.112911325467045 0.112911325467045 0.4272682841492973 0.4272682841492973 0.4272682841492973 0.4272912165971953 0.4272912165971953 0.4272912165971953 0.1401988410006405 
0.1401988410006405 0.1401988410006405 0.1332545624324508 0.1332545624324508 0.1332545624324508 0.01979092947672059 0.01979092947672059 0.01979092947672059 0.0142607947812495 
0.0142607947812495 0.0142607947812495 -0.6589335161025809 -0.6589335161025809 -0.6589335161025809 0.6097575494915766 0.6097575494915766 0.6097575494915766 0.6063270663661037 
0.6063270663661037 0.6063270663661037 0.5241508559963534 0.5241508559963534 0.5241508559963534 0.5316069761024395 0.5316069761024395 0.5316069761024395 -0.1885058410496343 
-0.1885058410496343 -0.1885058410496343 -0.1825940774663012 -0.1825940774663012 -0.1825940774663012 -0.2633384779183052 -0.2633384779183052 -0.2633384779183052 -0.2594979539180027 
-0.2594979539180027 -0.2594979539180027 -0.08203048956383097 -0.08203048956383097 -0.08203048956383097 -0.05249768565889068 -0.05249768565889068 -0.05249768565889068 -0.5063634595137166 
-0.5063634595137166 -0.5063634595137166 -0.5607162113934373 -0.5607162113934373 -0.5607162113934373 -0.5465843744476665 -0.5465843744476665 -0.5465843744476665 -0.4865905619843814 
-0.4865905619843814 -0.4865905619843814 0.6571520766638761 0.6571520766638761 0.6571520766638761 0.6585543692025917 0.6585543692025917 0.6585543692025917 -0.2699926738791991 
-0.2699926738791991 -0.2699926738791991 -0.2613137379787943 -0.2613137379787943 -0.2613137379787943 -0.1114997246554931 -0.1114997246554931 -0.1114997246554931 -0.1112816978396989 
-0.1112816978396989 -0.1112816978396989 -0.4294059098726394 -0.4294059098726394 -0.4294059098726394 -0.4353255232882837 -0.4353255232882837 -0.4353255232882837 0.34937969792517 
0.34937969792517 0.34937969792517 0.3570443780532707 0.3570443780532707 0.3570443780532707 0.3969846216986013 0.3969846216986013 0.3969846216986013 0.3872241812982247 
0.3872241812982247 0.3872241812982247 0.7409688419889187 0.7409688419889187 0.7409688419889187 0.7392101495588319 0.7392101495588319 0.7392101495588319 0.5958637305400388 
0.5958637305400388 0.5958637305400388 0.6025715762968348 0.6025715762968348 0.6025715762968348 -0.1916849351110339 -0.1916849351110339 -0.1916849351110339 -0.1817135157996715 
-0.1817135157996715 -0.1817135157996715 -0.2813596070193678 -0.2813596070193678 -0.2813596070193678 -0.2864437351416403 -0.2864437351416403 -0.2864437351416403 0.5939250617659441 
0.5939250617659441 0.5939250617659441 0.5942699822689647 0.5942699822689647 0.5942699822689647 -0.1234028022672196 -0.1234028022672196 -0.1234028022672196 -0.1298826623562937 
-0.1298826623562937 -0.1298826623562937 -0.3981047955646005 -0.3981047955646005 -0.3981047955646005 -0.4055749671255351 -0.4055749671255351 -0.4055749671255351 0.3164428388353349 
0.3164428388353349 0.3164428388353349 0.3238988840633052 0.3238988840633052 0.3238988840633052 0.6849801798768045 0.6849801798768045 0.6849801798768045 0.7367465258726256 
0.7367465258726256 0.7367465258726256 -0.258968181233789 -0.258968181233789 -0.258968181233789 -0.2605000582833713 -0.2605000582833713 -0.2605000582833713 -0.01226043271585816 
-0.01226043271585816 -0.01226043271585816 -0.0199154934436491 -0.0199154934436491 -0.0199154934436491 0.1639677531164411 0.1639677531164411 0.1639677531164411 0.1612170731631289 
0.1612170731631289 0.1612170731631289 -0.3973001211841137 -0.3973001211841137 -0.3973001211841137 -0.3878642247078273 -0.3878642247078273 -0.3878642247078273 0.2634889117240574 
0.2634889117240574 0.2634889117240574 0.2693663120220343 0.2693663120220343 0.2693663120220343 -0.5493345046495646 -0.5493345046495646 -0.5493345046495646 -0.5483921122614084 
-0.5483921122614084 -0.5483921122614084 0.08259614222541899 0.08259614222541899 0.08259614222541899 0.07666231625552303 0.07666231625552303 0.07666231625552303 0.3382403788187173 
0.3382403788187173 0.3382403788187173 0.3357858557731246 0.3357858557731246 0.3357858557731246 -0.1744983092247441 -0.1744983092247441 -0.1744983092247441 -0.2086933408807235 
-0.2086933408807235 -0.2086933408807235 -0.151833848519025 -0.151833848519025 -0.151833848519025 -0.1374162357305852 -0.1374162357305852 -0.1374162357305852 -0.4126305798908579 
-0.4126305798908579 -0.4126305798908579 -0.4105597576660366 -0.4105597576660366 -0.4105597576660366 -0.1320002483234465 -0.1320002483234465 -0.1320002483234465 -0.1431693393335399 
-0.1431693393335399 -0.1431693393335399 -0.4367811494059084 -0.4367811494059084 -0.4367811494059084 -0.4344630360503856 -0.4344630360503856 -0.4344630360503856 0.4159958427291758 
0.4159958427291758 0.4159958427291758 0.4053530198196005 0.4053530198196005 0.4053530198196005 0.06338268127813644 0.06338268127813644 0.06338268127813644 0.04259643480820492 
0.04259643480820492 0.04259643480820492 -0.3305365828212828 -0.3305365828212828 -0.3305365828212828 -0.3384718215587093 -0.3384718215587093 -0.3384718215587093 -0.3653337463518718 
-0.3653337463518718 -0.3653337463518718 -0.3579903326968358 -0.3579903326968358 -0.3579903326968358 0.189223356130151 0.189223356130151 0.189223356130151 0.1918896804798961 
0.1918896804798961 0.1918896804798961 0.322832529477575 0.322832529477575 0.322832529477575 0.3161324506833257 0.3161324506833257 0.3161324506833257 0.7202358075384032 
0.7202358075384032 0.7202358075384032 0.7183480786092488 0.7183480786092488 0.7183480786092488 0.5541793191045381 0.5541793191045381 0.5541793191045381 0.5143503972515964 
0.5143503972515964 0.5143503972515964 0.07839761258272648 0.07839761258272648 0.07839761258272648 0.07321109651978452 0.07321109651978452 0.07321109651978452 0.0734636751793846 
0.0734636751793846 0.0734636751793846 0.07688067529238195 0.07688067529238195 0.07688067529238195 -0.5329711423017975 -0.5329711423017975 -0.5329711423017975 -0.5356478330774183 
-0.5356478330774183 -0.5356478330774183 -0.5392105162742031 -0.5392105162742031 -0.5392105162742031 -0.3422640426042393 -0.3422640426042393 -0.3422640426042393 -0.3330010620521285 
-0.3330010620521285 -0.3330010620521285 -0.3106518548179801 -0.3106518548179801 -0.3106518548179801 -0.1751264097880204 -0.1751264097880204 -0.1751264097880204 -0.1702588177104232 
-0.1702588177104232 -0.1702588177104232 -0.1698378525647869 -0.1698378525647869 -0.1698378525647869 -0.07074225392456565 -0.07074225392456565 -0.07074225392456565 -0.07394284964573911 
-0.07394284964573911 -0.07394284964573911 -0.06945762170103731 -0.06945762170103731 -0.06945762170103731 -0.5004549190527263 -0.5004549190527263 -0.5004549190527263 -0.4976843808366749 
-0.4976843808366749 -0.4976843808366749 -0.496270827138504 -0.496270827138504 -0.496270827138504 -0.6209415047928061 -0.6209415047928061 -0.6209415047928061 -0.6145994458220292 
-0.6145994458220292 -0.6145994458220292 -0.6110374671676623 -0.6110374671676623 -0.6110374671676623 0.1978882611439331 0.1978882611439331 0.1978882611439331 -0.06085347468204476 
-0.06085347468204476 -0.06085347468204476 -0.06505895727337922 -0.06505895727337922 -0.06505895727337922 -0.06834801063198845 -0.06834801063198845 -0.06834801063198845 0.2605313514092755 
0.2605313514092755 0.2605313514092755 0.2641064811354348 0.2641064811354348 0.2641064811354348 0.2632580050100768 0.2632580050100768 0.2632580050100768 -0.1020484731950011 
-0.1020484731950011 -0.1020484731950011 -0.1071462327420325 -0.1071462327420325 -0.1071462327420325 -0.1141991322649575 -0.1141991322649575 -0.1141991322649575 -0.01766343316544874 
-0.01766343316544874 -0.01766343316544874 -0.01033393949620731 -0.01033393949620731 -0.01033393949620731 -0.004245955001885393 -0.004245955001885393 -0.004245955001885393 -0.06958780430499298 
-0.06958780430499298 -0.06958780430499298 -0.06252497903150163 -0.06252497903150163 -0.06252497903150163 -0.05892912105069995 -0.05892912105069995 -0.05892912105069995 -0.2534034257457187 
-0.2534034257457187 -0.2534034257457187 -0.2662927619401514 -0.2662927619401514 -0.2662927619401514 -0.2643004786179992 -0.2643004786179992 -0.2643004786179992 0.6064061951982341 
0.6064061951982341 0.6064061951982341 0.6019501022086786 0.6019501022086786 0.6019501022086786 0.5992924826854253 0.5992924826854253 0.5992924826854253 -0.4274953615328932 
-0.4274953615328932 -0.4274953615328932 -0.424527250540951 -0.424527250540951 -0.424527250540951 -0.4246630025584488 -0.4246630025584488 -0.4246630025584488 -0.08674587312623819 
-0.08674587312623819 -0.08674587312623819 -0.09057718130456179 -0.09057718130456179 -0.09057718130456179 -0.09177211008591446 -0.09177211008591446 -0.09177211008591446 0.01262011206843829 
0.01262011206843829 0.01262011206843829 0.01103097457538687 0.01103097457538687 0.01103097457538687 0.002833825886089523 0.002833825886089523 0.002833825886089523 -0.2938301028681938 
-0.2938301028681938 -0.2938301028681938 -0.2917458071149993 -0.2917458071149993 -0.2917458071149993 -0.2889791761700886 -0.2889791761700886 -0.2889791761700886 -0.4664891044995165 
-0.4664891044995165 -0.4664891044995165 -0.443921700101251 -0.443921700101251 -0.443921700101251 -0.4446147146071203 -0.4446147146071203 -0.4446147146071203 0.660889092127641 
0.660889092127641 0.660889092127641 0.6640551788478932 0.6640551788478932 0.6640551788478932 0.6668494550710817 0.6668494550710817 0.6668494550710817 0.2305730621701139 
0.2305730621701139 0.2305730621701139 0.2351076224685356 0.2351076224685356 0.2351076224685356 0.2353550166009393 0.2353550166009393 0.2353550166009393 0.4617748236918648 
0.4617748236918648 0.4617748236918648 0.4648411817429338 0.4648411817429338 0.4648411817429338 0.4680638964888619 0.4680638964888619 0.4680638964888619 -0.5885960456515432 
-0.5885960456515432 -0.5885960456515432 -0.5855023589223151 -0.5855023589223151 -0.5855023589223151 -0.5829913809007807 -0.5829913809007807 -0.5829913809007807 0.2804945397964642 
0.2804945397964642 0.2804945397964642 0.2829799868051209 0.2829799868051209 0.2829799868051209 0.2863065054579687 0.2863065054579687 0.2863065054579687 -0.2521745808338574 
-0.2521745808338574 -0.2521745808338574 -0.2584361000136575 -0.2584361000136575 -0.2584361000136575 -0.2617540993136698 -0.2617540993136698 -0.2617540993136698 -0.610610608709104 
-0.610610608709104 -0.610610608709104 -0.6070583594054769 -0.6070583594054769 -0.6070583594054769 -0.6040537746391842 -0.6040537746391842 -0.6040537746391842 0.5096227104343406 
0.5096227104343406 0.5096227104343406 0.4714376983535705 0.4714376983535705 0.4714376983535705 0.4740835627379129 0.4740835627379129 0.4740835627379129 -0.6424983728830964 