Title = Triangle100
FileType = Solution
Variables = q
Zone T = Triangle100
ZoneType = FETriangle
Nodes = 99072
Elements = 33024
DataPacking = Block
StrandID = 12
SolutionTime = 1.1
0.1137801821700018 0.1137801821700018 0.1137801821700018 0.1108123498387464 0.1108123498387464 0.1108123498387464 0.1090747453835516 0.1090747453835516 0.1090747453835516 -0.02387788378715811 
-0.02387788378715811 -0.02387788378715811 0.1870117186458064 0.1870117186458064 0.1870117186458064 0.1969365624674943 0.1969365624674943 0.1969365624674943 0.2010345730935772 
0.2010345730935772 0.2010345730935772 -0.2603861419619026 -0.2603861419619026 -0.2603861419619026 -0.2626896537196937 -0.2626896537196937 -0.2626896537196937 0.5183395536406437 
0.5183395536406437 0.5183395536406437 0.5163715888809267 0.5163715888809267 0.5163715888809267 0.3766121055140144 0.3766121055140144 0.3766121055140144 0.3756237660350689 
0.3756237660350689 0.3756237660350689 -0.1338568058998226 -0.1338568058998226 -0.1338568058998226 -0.1362231194936065 -0.1362231194936065 -0.1362231194936065 0.04202171633895511 
0.04202171633895511 0.04202171633895511 -0.1755684353141448 -0.1755684353141448 -0.1755684353141448 0.368504887141231 0.368504887141231 0.368504887141231 0.3666851669049869 
0.3666851669049869 0.3666851669049869 0.2469541649066496 0.2469541649066496 0.2469541649066496 0.2393037104023938 0.2393037104023938 0.2393037104023938 0.2364953975616816 
0.2364953975616816 0.2364953975616816 0.4795826529643509 0.4795826529643509 0.4795826529643509 0.4773634179022988 0.4773634179022988 0.4773634179022988 -0.2538457704445177 
-0.2538457704445177 -0.2538457704445177 -0.2541427570309182 -0.2541427570309182 -0.2541427570309182 -0.2681030908000548 -0.2681030908000548 -0.2681030908000548 -0.2737898071979525 
-0.2737898071979525 -0.2737898071979525 0.06684018119957259 0.06684018119957259 0.06684018119957259 -0.06272694668386568 -0.06272694668386568 -0.06272694668386568 -0.4443680720492307 
-0.4443680720492307 -0.4443680720492307 -0.4460391290511833 -0.4460391290511833 -0.4460391290511833 -0.4483941813266915 -0.4483941813266915 -0.4483941813266915 0.4936038625398095 
0.4936038625398095 0.4936038625398095 0.4914387641059679 0.4914387641059679 0.4914387641059679 0.4897595776312845 0.4897595776312845 0.4897595776312845 -0.4976880194863355 
-0.4976880194863355 -0.4976880194863355 -0.5125320183174532 -0.5125320183174532 -0.5125320183174532 -0.5280096906894547 -0.5280096906894547 -0.5280096906894547 0.3687808851917467 
0.3687808851917467 0.3687808851917467 0.3713212239291395 0.3713212239291395 0.3713212239291395 0.3736938277883415 0.3736938277883415 0.3736938277883415 -0.2887435449194135 
-0.2887435449194135 -0.2887435449194135 -0.2870110806305352 -0.2870110806305352 -0.2870110806305352 -0.2881319182512913 -0.2881319182512913 -0.2881319182512913 0.04710072721182317 
0.04710072721182317 0.04710072721182317 0.04518025770290467 0.04518025770290467 0.04518025770290467 0.0429845025386375 0.0429845025386375 0.0429845025386375 0.4288972606400606 
0.4288972606400606 0.4288972606400606 0.4272085054936273 0.4272085054936273 0.4272085054936273 0.430837694103919 0.430837694103919 0.430837694103919 0.5518171242548489 
0.5518171242548489 0.5518171242548489 0.5491620189441299 0.5491620189441299 0.5491620189441299 -0.2814404047884868 -0.2814404047884868 -0.2814404047884868 -0.2785256898910019 
-0.2785256898910019 -0.2785256898910019 -0.3921867614843839 -0.3921867614843839 -0.3921867614843839 -0.3908363841262004 -0.3908363841262004 -0.3908363841262004 0.08290216523997002 
0.08290216523997002 0.08290216523997002 0.0610701815690369 0.0610701815690369 0.0610701815690369 -0.2732704385201818 -0.2732704385201818 -0.2732704385201818 -0.2804242538423113 
-0.2804242538423113 -0.2804242538423113 0.1296255728334191 0.1296255728334191 0.1296255728334191 0.128825560787486 0.128825560787486 0.128825560787486 -0.5705862050948086 
-0.5705862050948086 -0.5705862050948086 -0.5689185574050335 -0.5689185574050335 -0.5689185574050335 0.1518596466652875 0.1518596466652875 0.1518596466652875 0.122406002201501 
0.122406002201501 0.122406002201501 -0.1275115314666206 -0.1275115314666206 -0.1275115314666206 -0.1297654228744508 -0.1297654228744508 -0.1297654228744508 -0.2707652005735164 
-0.2707652005735164 -0.2707652005735164 -0.2668859230485451 -0.2668859230485451 -0.2668859230485451 0.2684247666204334 0.2684247666204334 0.2684247666204334 0.2663163273397259 
0.2663163273397259 0.2663163273397259 -0.1130543364339702 -0.1130543364339702 -0.1130543364339702 -0.1169843708130167 -0.1169843708130167 -0.1169843708130167 -0.3952529850436968 
-0.3952529850436968 -0.3952529850436968 -0.3937496766669678 -0.3937496766669678 -0.3937496766669678 -0.6078109959692682 -0.6078109959692682 -0.6078109959692682 -0.605918774148988 
-0.605918774148988 -0.605918774148988 -0.4079053866057138 -0.4079053866057138 -0.4079053866057138 -0.4092638165947558 -0.4092638165947558 -0.4092638165947558 -0.02535037008593167 
-0.02535037008593167 -0.02535037008593167 -0.02353248723723926 -0.02353248723723926 -0.02353248723723926 0.2446964483707712 0.2446964483707712 0.2446964483707712 0.241151087930775 
0.241151087930775 0.241151087930775 -0.2479738536450566 -0.2479738536450566 -0.2479738536450566 -0.2524516125190742 -0.2524516125190742 -0.2524516125190742 0.1394487147225086 
0.1394487147225086 0.1394487147225086 0.1373507609854366 0.1373507609854366 0.1373507609854366 0.1700937478415223 0.1700937478415223 0.1700937478415223 0.2800202943200078 
0.2800202943200078 0.2800202943200078 0.4550382642869469 0.4550382642869469 0.4550382642869469 0.5284728084046415 0.5284728084046415 0.5284728084046415 0.5243704591482155 
0.5243704591482155 0.5243704591482155 0.3723777868320953 0.3723777868320953 0.3723777868320953 0.3676437396631411 0.3676437396631411 0.3676437396631411 -0.07480525592619836 
-0.07480525592619836 -0.07480525592619836 -0.08194730506405051 -0.08194730506405051 -0.08194730506405051 0.5559594960113211 0.5559594960113211 0.5559594960113211 0.551511166692759 
0.551511166692759 0.551511166692759 -0.1453020609367721 -0.1453020609367721 -0.1453020609367721 -0.1409570574026867 -0.1409570574026867 -0.1409570574026867 -0.5786812833320013 
-0.5786812833320013 -0.5786812833320013 -0.5214390208179507 -0.5214390208179507 -0.5214390208179507 0.551580725457204 0.551580725457204 0.551580725457204 0.5484105463656325 
0.5484105463656325 0.5484105463656325 0.1223410700690546 0.1223410700690546 0.1223410700690546 0.1172771140989603 0.1172771140989603 0.1172771140989603 0.4888811959900175 
0.4888811959900175 0.4888811959900175 0.4727120837437545 0.4727120837437545 0.4727120837437545 -0.2738765618406729 -0.2738765618406729 -0.2738765618406729 -0.2665805254026679 
-0.2665805254026679 -0.2665805254026679 0.254978298650113 0.254978298650113 0.254978298650113 0.2990747986568507 0.2990747986568507 0.2990747986568507 -0.3544322689729494 
-0.3544322689729494 -0.3544322689729494 -0.3081859561612048 -0.3081859561612048 -0.3081859561612048 -0.4240558430577357 -0.4240558430577357 -0.4240558430577357 -0.4175586362384794 
-0.4175586362384794 -0.4175586362384794 -0.2633114384754001 -0.2633114384754001 -0.2633114384754001 -0.2685860262794282 -0.2685860262794282 -0.2685860262794282 -0.3377181045767158 
-0.3377181045767158 -0.3377181045767158 -0.2496922279937511 -0.2496922279937511 -0.2496922279937511 0.4284987344284588 0.4284987344284588 0.4284987344284588 0.4214673410158628 
0.4214673410158628 0.4214673410158628 0.1984943818124604 0.1984943818124604 0.1984943818124604 0.1997331766072431 0.1997331766072431 0.1997331766072431 0.2017964149954324 
0.2017964149954324 0.2017964149954324 -0.2909381748286425 -0.2909381748286425 -0.2909381748286425 -0.2519240245192638 -0.2519240245192638 -0.2519240245192638 -0.2254173179608803 
-0.2254173179608803 -0.2254173179608803 -0.6255720379597778 -0.6255720379597778 -0.6255720379597778 -0.6228512539183858 -0.6228512539183858 -0.6228512539183858 -0.6212423413243751 
-0.6212423413243751 -0.6212423413243751 0.06181888080283914 0.06181888080283914 0.06181888080283914 0.05971135867114217 0.05971135867114217 0.05971135867114217 0.0577803358539961 
0.0577803358539961 0.0577803358539961 -0.5089612652269546 -0.5089612652269546 -0.5089612652269546 -0.5116269811704939 -0.5116269811704939 -0.5116269811704939 -0.5138337055761046 
-0.5138337055761046 -0.5138337055761046 0.3643921653052784 0.3643921653052784 0.3643921653052784 0.3652311594963269 0.3652311594963269 0.3652311594963269 0.1027091603681514 
0.1027091603681514 0.1027091603681514 0.100785800062829 0.100785800062829 0.100785800062829 0.09745292838948363 0.09745292838948363 0.09745292838948363 -0.1456227342976495 
-0.1456227342976495 -0.1456227342976495 -0.1504153771488667 -0.1504153771488667 -0.1504153771488667 -0.1492779386051706 -0.1492779386051706 -0.1492779386051706 -0.1933722548706288 
-0.1933722548706288 -0.1933722548706288 -0.1890275254106329 -0.1890275254106329 -0.1890275254106329 -0.1873717136533257 -0.1873717136533257 -0.1873717136533257 -0.007988109342145422 
-0.007988109342145422 -0.007988109342145422 -0.02047064521469332 -0.02047064521469332 -0.02047064521469332 -0.02244720460588838 -0.02244720460588838 -0.02244720460588838 -0.2839192029457863 
-0.2839192029457863 -0.2839192029457863 -0.2813256974973305 -0.2813256974973305 -0.2813256974973305 -0.2813098419082886 -0.2813098419082886 -0.2813098419082886 0.3763666246219915 
0.3763666246219915 0.3763666246219915 0.3405102686918471 0.3405102686918471 0.3405102686918471 0.3491826352386045 0.3491826352386045 0.3491826352386045 0.2704227204785909 
0.2704227204785909 0.2704227204785909 0.2704817397168537 0.2704817397168537 0.2704817397168537 0.2686379414147744 0.2686379414147744 0.2686379414147744 0.2030817013452359 
0.2030817013452359 0.2030817013452359 0.2050254786414811 0.2050254786414811 0.2050254786414811 -0.2773028754974484 -0.2773028754974484 -0.2773028754974484 -0.2752534679376378 
-0.2752534679376378 -0.2752534679376378 -0.2737977786733841 -0.2737977786733841 -0.2737977786733841 -0.1242574338397653 -0.1242574338397653 -0.1242574338397653 -0.1200117401260507 
-0.1200117401260507 -0.1200117401260507 0.2148498256069828 0.2148498256069828 0.2148498256069828 0.2123958625073737 0.2123958625073737 0.2123958625073737 0.1835247495326487 
0.1835247495326487 0.1835247495326487 0.1866223967386164 0.1866223967386164 0.1866223967386164 -0.15492591520872 -0.15492591520872 -0.15492591520872 -0.1570154104464722 
-0.1570154104464722 -0.1570154104464722 0.4851069317571541 0.4851069317571541 0.4851069317571541 0.4822847866238891 0.4822847866238891 0.4822847866238891 0.1764012149891812 
0.1764012149891812 0.1764012149891812 0.1808852571755467 0.1808852571755467 0.1808852571755467 -0.4302758726617886 -0.4302758726617886 -0.4302758726617886 -0.4282334820418102 
-0.4282334820418102 -0.4282334820418102 0.5302776401983422 0.5302776401983422 0.5302776401983422 0.5281608599294144 0.5281608599294144 0.5281608599294144 -0.351626625065631 
-0.351626625065631 -0.351626625065631 -0.3508089373697286 -0.3508089373697286 -0.3508089373697286 0.273847693619814 0.273847693619814 0.273847693619814 0.3143028739953642 
0.3143028739953642 0.3143028739953642 -0.3148528285773454 -0.3148528285773454 -0.3148528285773454 -0.3123504660843169 -0.3123504660843169 -0.3123504660843169 0.1506091061514428 
0.1506091061514428 0.1506091061514428 0.1484373408782119 0.1484373408782119 0.1484373408782119 -0.1320289466652967 -0.1320289466652967 -0.1320289466652967 -0.1044307746263715 
-0.1044307746263715 -0.1044307746263715 -0.312375899433541 -0.312375899433541 -0.312375899433541 -0.351717678226276 -0.351717678226276 -0.351717678226276 0.5600665939309801 
0.5600665939309801 0.5600665939309801 0.5577523846182398 0.5577523846182398 0.5577523846182398 -0.4874067147511466 -0.4874067147511466 -0.4874067147511466 -0.4894983737250134 
-0.4894983737250134 -0.4894983737250134 -0.4884944605141893 -0.4884944605141893 -0.4884944605141893 -0.490838648752954 -0.490838648752954 -0.490838648752954 0.1430473739095751 
0.1430473739095751 0.1430473739095751 0.1402860385095893 0.1402860385095893 0.1402860385095893 -0.4216727943106744 -0.4216727943106744 -0.4216727943106744 -0.4247069635636463 
-0.4247069635636463 -0.4247069635636463 -0.2953240672156948 -0.2953240672156948 -0.2953240672156948 -0.3005518979004387 -0.3005518979004387 -0.3005518979004387 0.1453602422330916 
0.1453602422330916 0.1453602422330916 0.1466410261431856 0.1466410261431856 0.1466410261431856 -0.4145200713268143 -0.4145200713268143 -0.4145200713268143 -0.4130618300305413 
-0.4130618300305413 -0.4130618300305413 0.5746236223383667 0.5746236223383667 0.5746236223383667 0.5730436882613131 0.5730436882613131 0.5730436882613131 -0.3852555070757507 
-0.3852555070757507 -0.3852555070757507 -0.3876334325439308 -0.3876334325439308 -0.3876334325439308 -0.4185193296889517 -0.4185193296889517 -0.4185193296889517 -0.3724644077458022 
-0.3724644077458022 -0.3724644077458022 -0.6457459424633835 -0.6457459424633835 -0.6457459424633835 -0.6193657411714261 -0.6193657411714261 -0.6193657411714261 -0.361833659254948 
-0.361833659254948 -0.361833659254948 -0.3604164845538525 -0.3604164845538525 -0.3604164845538525 -0.01748975797621918 -0.01748975797621918 -0.01748975797621918 -0.01953048402891724 
-0.01953048402891724 -0.01953048402891724 0.2851372524246768 0.2851372524246768 0.2851372524246768 0.2863694045689701 0.2863694045689701 0.2863694045689701 -0.5298687360146844 
-0.5298687360146844 -0.5298687360146844 -0.4750321727736608 -0.4750321727736608 -0.4750321727736608 0.2997628092920702 0.2997628092920702 0.2997628092920702 0.3015020596779366 
0.3015020596779366 0.3015020596779366 0.2594153450885148 0.2594153450885148 0.2594153450885148 0.256865378304531 0.256865378304531 0.256865378304531 0.3800988239200556 
0.3800988239200556 0.3800988239200556 0.3939249034382256 0.3939249034382256 0.3939249034382256 0.5558563023991896 0.5558563023991896 0.5558563023991896 0.5538624260068571 
0.5538624260068571 0.5538624260068571 -0.5118963385391775 -0.5118963385391775 -0.5118963385391775 0.2271653786215876 0.2271653786215876 0.2271653786215876 0.229382616569691 
0.229382616569691 0.229382616569691 -0.5612437129551643 -0.5612437129551643 -0.5612437129551643 -0.5638260167811995 -0.5638260167811995 -0.5638260167811995 -0.5702757556319834 
-0.5702757556319834 -0.5702757556319834 -0.5684630358097417 -0.5684630358097417 -0.5684630358097417 -0.3583309376518112 -0.3583309376518112 -0.3583309376518112 -0.3569776042574829 
-0.3569776042574829 -0.3569776042574829 0.3315872779169546 0.3315872779169546 0.3315872779169546 0.3340515867398893 0.3340515867398893 0.3340515867398893 0.3339857218972136 
0.3339857218972136 0.3339857218972136 0.3361310399316667 0.3361310399316667 0.3361310399316667 -0.3079651448625583 -0.3079651448625583 -0.3079651448625583 -0.3024133699610672 
-0.3024133699610672 -0.3024133699610672 -0.2696965183745264 -0.2696965183745264 -0.2696965183745264 -0.1340315969506688 -0.1340315969506688 -0.1340315969506688 0.1325646924062073 
0.1325646924062073 0.1325646924062073 0.1343914499521301 0.1343914499521301 0.1343914499521301 -0.3474402093714486 -0.3474402093714486 -0.3474402093714486 -0.3636664419877491 
-0.3636664419877491 -0.3636664419877491 0.3632089487241209 0.3632089487241209 0.3632089487241209 0.02837009124543669 0.02837009124543669 0.02837009124543669 0.02821122672670747 
0.02821122672670747 0.02821122672670747 0.4437455337872755 0.4437455337872755 0.4437455337872755 0.4435769582903124 0.4435769582903124 0.4435769582903124 -0.2611586179839187 
-0.2611586179839187 -0.2611586179839187 -0.2584778764234243 -0.2584778764234243 -0.2584778764234243 -0.2375352815237728 -0.2375352815237728 -0.2375352815237728 -0.2344439491412725 
-0.2344439491412725 -0.2344439491412725 0.1333806749870934 0.1333806749870934 0.1333806749870934 0.1373324116295001 0.1373324116295001 0.1373324116295001 0.4367795698339764 
0.4367795698339764 0.4367795698339764 0.2326727931738003 0.2326727931738003 0.2326727931738003 0.2367779400897367 0.2367779400897367 0.2367779400897367 0.2454232910693262 
0.2454232910693262 0.2454232910693262 0.2468071940851922 0.2468071940851922 0.2468071940851922 -0.505723330676406 -0.505723330676406 -0.505723330676406 -0.5061265410732706 
-0.5061265410732706 -0.5061265410732706 -0.4916055183732844 -0.4916055183732844 -0.4916055183732844 -0.5422245475632375 -0.5422245475632375 -0.5422245475632375 -0.4339409675646642 
-0.4339409675646642 -0.4339409675646642 -0.4320964526035554 -0.4320964526035554 -0.4320964526035554 0.5108609859316502 0.5108609859316502 0.5108609859316502 0.5085115165271349 
0.5085115165271349 0.5085115165271349 -0.2520248846662393 -0.2520248846662393 -0.2520248846662393 -0.2541538103042018 -0.2541538103042018 -0.2541538103042018 0.4401105729483951 
0.4401105729483951 0.4401105729483951 0.4386098963507246 0.4386098963507246 0.4386098963507246 0.2685045966941502 0.2685045966941502 0.2685045966941502 0.1801110579839155 
0.1801110579839155 0.1801110579839155 0.2387849608382404 0.2387849608382404 0.2387849608382404 0.2367096953847199 0.2367096953847199 0.2367096953847199 0.03852721576555536 
0.03852721576555536 0.03852721576555536 0.03659999111846236 0.03659999111846236 0.03659999111846236 -0.08880498755700079 -0.08880498755700079 -0.08880498755700079 -0.09214167577108254 
-0.09214167577108254 -0.09214167577108254 -0.2463951175891891 -0.2463951175891891 -0.2463951175891891 -0.2486334990303427 -0.2486334990303427 -0.2486334990303427 -0.01732180674983354 
-0.01732180674983354 -0.01732180674983354 -0.01782948907964737 -0.01782948907964737 -0.01782948907964737 -0.3183662567288857 -0.3183662567288857 -0.3183662567288857 -0.3735359856888372 
-0.3735359856888372 -0.3735359856888372 -0.08883911574191708 -0.08883911574191708 -0.08883911574191708 -0.5168632668151114 -0.5168632668151114 -0.5168632668151114 -0.5115390870779655 
-0.5115390870779655 -0.5115390870779655 -0.4135309687092361 -0.4135309687092361 -0.4135309687092361 -0.4091629984670896 -0.4091629984670896 -0.4091629984670896 0.5487750851981081 
0.5487750851981081 0.5487750851981081 0.5447371507514391 0.5447371507514391 0.5447371507514391 0.3635343069776836 0.3635343069776836 0.3635343069776836 0.3599667108736597 
0.3599667108736597 0.3599667108736597 0.1524009367646643 0.1524009367646643 0.1524009367646643 0.1469580063856185 0.1469580063856185 0.1469580063856185 0.3768339107960935 
0.3768339107960935 0.3768339107960935 0.3691901559773637 0.3691901559773637 0.3691901559773637 -0.1304051359366808 -0.1304051359366808 -0.1304051359366808 -0.09383425124593348 
-0.09383425124593348 -0.09383425124593348 -0.272062665872617 -0.272062665872617 -0.272062665872617 -0.275452779212676 -0.275452779212676 -0.275452779212676 -0.6042180197008624 
-0.6042180197008624 -0.6042180197008624 -0.5995222144642698 -0.5995222144642698 -0.5995222144642698 -0.4422875749908119 -0.4422875749908119 -0.4422875749908119 -0.4690350724233142 
-0.4690350724233142 -0.4690350724233142 -0.280613673597168 -0.280613673597168 -0.280613673597168 -0.2628260385620023 -0.2628260385620023 -0.2628260385620023 -0.2275943599760472 
-0.2275943599760472 -0.2275943599760472 -0.2237744289117309 -0.2237744289117309 -0.2237744289117309 0.1867125228493963 0.1867125228493963 0.1867125228493963 0.3281574566294688 
0.3281574566294688 0.3281574566294688 0.2923218648781591 0.2923218648781591 0.2923218648781591 0.2924309405280542 0.2924309405280542 0.2924309405280542 0.09626769403189757 
0.09626769403189757 0.09626769403189757 0.09151366567300651 0.09151366567300651 0.09151366567300651 -0.3262987698585939 -0.3262987698585939 -0.3262987698585939 -0.3022142140173122 
-0.3022142140173122 -0.3022142140173122 -0.4511280513445291 -0.4511280513445291 -0.4511280513445291 0.4173362830592241 0.4173362830592241 0.4173362830592241 0.4148574393142298 
0.4148574393142298 0.4148574393142298 0.3584488813132381 0.3584488813132381 0.3584488813132381 0.3635126222931357 0.3635126222931357 0.3635126222931357 -0.3544878143977326 
-0.3544878143977326 -0.3544878143977326 -0.2034749983075021 -0.2034749983075021 -0.2034749983075021 -0.1808549382499764 -0.1808549382499764 -0.1808549382499764 -0.1780606488025033 
-0.1780606488025033 -0.1780606488025033 0.2978502737301351 0.2978502737301351 0.2978502737301351 0.3215408072659307 0.3215408072659307 0.3215408072659307 -0.4074545521252114 
-0.4074545521252114 -0.4074545521252114 -0.4070149654698026 -0.4070149654698026 -0.4070149654698026 -0.385690010874122 -0.385690010874122 -0.385690010874122 -0.3813066290321381 
-0.3813066290321381 -0.3813066290321381 0.4501405804632331 0.4501405804632331 0.4501405804632331 0.4509409266680993 0.4509409266680993 0.4509409266680993 -0.1863621877987988 
-0.1863621877987988 -0.1863621877987988 -0.1794564194881573 -0.1794564194881573 -0.1794564194881573 -0.07630742576012586 -0.07630742576012586 -0.07630742576012586 -0.01506144162642843 
-0.01506144162642843 -0.01506144162642843 -0.2937024704991318 -0.2937024704991318 -0.2937024704991318 -0.2977309335293771 -0.2977309335293771 -0.2977309335293771 0.2391013128147016 
0.2391013128147016 0.2391013128147016 0.2443288400359232 0.2443288400359232 0.2443288400359232 0.2717412513396239 0.2717412513396239 0.2717412513396239 0.265098562584841 
0.265098562584841 0.265098562584841 0.5105507361995217 0.5105507361995217 0.5105507361995217 0.5076172445844263 0.5076172445844263 0.5076172445844263 0.4077193114653077 
0.4077193114653077 0.4077193114653077 0.4122727456241631 0.4122727456241631 0.4122727456241631 -0.1319331791410675 -0.1319331791410675 -0.1319331791410675 -0.1245362667854163 
-0.1245362667854163 -0.1245362667854163 -0.2262635480729811 -0.2262635480729811 -0.2262635480729811 -0.3772915914104472 -0.3772915914104472 -0.3772915914104472 0.4061896154038678 
0.4061896154038678 0.4061896154038678 0.406501738803762 0.406501738803762 0.406501738803762 -0.4691478626811144 -0.4691478626811144 -0.4691478626811144 -0.4731909764817221 
-0.4731909764817221 -0.4731909764817221 -0.2725205269025487 -0.2725205269025487 -0.2725205269025487 -0.2776239940122312 -0.2776239940122312 -0.2776239940122312 0.2596524842004206 
0.2596524842004206 0.2596524842004206 0.2679141657469969 0.2679141657469969 0.2679141657469969 0.5242946492248817 0.5242946492248817 0.5242946492248817 0.5206329031555958 
0.5206329031555958 0.5206329031555958 -0.1773080800010706 -0.1773080800010706 -0.1773080800010706 -0.1783466014749368 -0.1783466014749368 -0.1783466014749368 -0.3872610984860235 
-0.3872610984860235 -0.3872610984860235 -0.3920400936715014 -0.3920400936715014 -0.3920400936715014 0.1164603679214373 0.1164603679214373 0.1164603679214373 0.1106862361680377 
0.1106862361680377 0.1106862361680377 -0.2718187726427456 -0.2718187726427456 -0.2718187726427456 -0.2653855613281778 -0.2653855613281778 -0.2653855613281778 0.1806279998808896 
0.1806279998808896 0.1806279998808896 0.1846771453407539 0.1846771453407539 0.1846771453407539 -0.3754876902445053 -0.3754876902445053 -0.3754876902445053 -0.3748467676501125 
-0.3748467676501125 -0.3748467676501125 0.05696372361080711 0.05696372361080711 0.05696372361080711 0.05290584346518685 0.05290584346518685 0.05290584346518685 0.5640241856525586 
0.5640241856525586 0.5640241856525586 0.4699061199043991 0.4699061199043991 0.4699061199043991 0.09351136079978435 0.09351136079978435 0.09351136079978435 -0.1344223938792591 
-0.1344223938792591 -0.1344223938792591 0.2103162362033237 0.2103162362033237 0.2103162362033237 0.212624164822612 0.212624164822612 0.212624164822612 -0.282278569681244 
-0.282278569681244 -0.282278569681244 -0.2808954058299541 -0.2808954058299541 -0.2808954058299541 -0.08654857826312773 -0.08654857826312773 -0.08654857826312773 -0.09760281409804383 
-0.09760281409804383 -0.09760281409804383 -0.2987991834514105 -0.2987991834514105 -0.2987991834514105 -0.2972625930631753 -0.2972625930631753 -0.2972625930631753 0.2847109967986055 
0.2847109967986055 0.2847109967986055 0.2775079011968679 0.2775079011968679 0.2775079011968679 0.4219585008022536 0.4219585008022536 0.4219585008022536 0.4039269211923943 
0.4039269211923943 0.4039269211923943 -0.2267072617976399 -0.2267072617976399 -0.2267072617976399 -0.2319817742234217 -0.2319817742234217 -0.2319817742234217 -0.2500930978691532 
-0.2500930978691532 -0.2500930978691532 -0.2450493677956627 -0.2450493677956627 -0.2450493677956627 0.5186850233163726 0.5186850233163726 0.5186850233163726 0.5231321408769108 
0.5231321408769108 0.5231321408769108 0.2212234505576009 0.2212234505576009 0.2212234505576009 0.2168619549049345 0.2168619549049345 0.2168619549049345 0.4965926394151984 
0.4965926394151984 0.4965926394151984 0.4931001370174056 0.4931001370174056 0.4931001370174056 0.3832600897619344 0.3832600897619344 0.3832600897619344 0.3781186205368962 
0.3781186205368962 0.3781186205368962 0.435862614851819 0.435862614851819 0.435862614851819 0.4254407516192334 0.4254407516192334 0.4254407516192334 0.4103100622502734 
0.4103100622502734 0.4103100622502734 0.4106251299603195 0.4106251299603195 0.4106251299603195 -0.3643878381271975 -0.3643878381271975 -0.3643878381271975 -0.3662441690444977 
-0.3662441690444977 -0.3662441690444977 -0.3686840732082937 -0.3686840732082937 -0.3686840732082937 -0.2348082777069625 -0.2348082777069625 -0.2348082777069625 -0.2282639053145676 
-0.2282639053145676 -0.2282639053145676 -0.2132063322242929 -0.2132063322242929 -0.2132063322242929 -0.4896825395896484 -0.4896825395896484 -0.4896825395896484 -0.4810108219161733 
-0.4810108219161733 -0.4810108219161733 -0.4587952442364792 -0.4587952442364792 -0.4587952442364792 -0.06706330574387698 -0.06706330574387698 -0.06706330574387698 -0.05948305820063461 
-0.05948305820063461 -0.05948305820063461 -0.04853561993340094 -0.04853561993340094 -0.04853561993340094 -0.3422048533949407 -0.3422048533949407 -0.3422048533949407 -0.3403142660544264 
-0.3403142660544264 -0.3403142660544264 -0.3393458932501947 -0.3393458932501947 -0.3393458932501947 -0.4251615124247738 -0.4251615124247738 -0.4251615124247738 -0.42075693441995 
-0.42075693441995 -0.42075693441995 -0.4183867612165998 -0.4183867612165998 -0.4183867612165998 0.5278212951037051 0.5278212951037051 0.5278212951037051 0.104118960483169 
0.104118960483169 0.104118960483169 0.02540806075944773 0.02540806075944773 0.02540806075944773 0.08835548584137873 0.08835548584137873 0.08835548584137873 0.1784766639714707 
0.1784766639714707 0.1784766639714707 0.1809131590023783 0.1809131590023783 0.1809131590023783 0.1803422705318945 0.1803422705318945 0.1803422705318945 0.216316968463156 
0.216316968463156 0.216316968463156 0.2132838492662082 0.2132838492662082 0.2132838492662082 -0.03327632672044079 -0.03327632672044079 -0.03327632672044079 -0.392394728173762 
-0.392394728173762 -0.392394728173762 -0.3855738937216868 -0.3855738937216868 -0.3855738937216868 -0.3518040875602648 -0.3518040875602648 -0.3518040875602648 -0.04492582676390131 
-0.04492582676390131 -0.04492582676390131 0.1329789210339276 0.1329789210339276 0.1329789210339276 0.1588545251295229 0.1588545251295229 0.1588545251295229 -0.1736807533977242 
-0.1736807533977242 -0.1736807533977242 -0.1849435393195644 -0.1849435393195644 -0.1849435393195644 -0.181122604094566 -0.181122604094566 -0.181122604094566 0.4151308533693682 
0.4151308533693682 0.4151308533693682 0.4120903331569264 0.4120903331569264 0.4120903331569264 0.4102466509313996 0.4102466509313996 0.4102466509313996 -0.2924496420515067 
-0.2924496420515067 -0.2924496420515067 -0.290430448825133 -0.290430448825133 -0.290430448825133 -0.2905505459291842 -0.2905505459291842 -0.2905505459291842 0.225695650884103 
0.225695650884103 0.225695650884103 0.2284238572024249 0.2284238572024249 0.2284238572024249 0.2547865026617177 0.2547865026617177 0.2547865026617177 -0.05798092104128975 
-0.05798092104128975 -0.05798092104128975 -0.2985195550465242 -0.2985195550465242 -0.2985195550465242 -0.3574579003787049 -0.3574579003787049 -0.3574579003787049 -0.5875243220430202 
-0.5875243220430202 -0.5875243220430202 -0.5889369214773232 -0.5889369214773232 -0.5889369214773232 -0.5873089754282277 -0.5873089754282277 -0.5873089754282277 -0.3266428978120116 
-0.3266428978120116 -0.3266428978120116 -0.3250220128728563 -0.3250220128728563 -0.3250220128728563 -0.3269348297982014 -0.3269348297982014 -0.3269348297982014 0.4528937110962921 
0.4528937110962921 0.4528937110962921 0.4551150388737311 0.4551150388737311 0.4551150388737311 0.4569404556144555 0.4569404556144555 0.4569404556144555 0.5505196571449942 
0.5505196571449942 0.5505196571449942 0.5536317505819504 0.5536317505819504 0.5536317505819504 0.5537710877917854 0.5537710877917854 0.5537710877917854 0.3157816966089395 
0.3157816966089395 0.3157816966089395 0.3178738545794057 0.3178738545794057 0.3178738545794057 0.3200742382124233 0.3200742382124233 0.3200742382124233 -0.4026421255977145 
-0.4026421255977145 -0.4026421255977145 -0.4005098439755068 -0.4005098439755068 -0.4005098439755068 -0.3987799192307148 -0.3987799192307148 -0.3987799192307148 0.1925180551327914 
0.1925180551327914 0.1925180551327914 0.194233304382652 0.194233304382652 0.194233304382652 0.1965297301484666 0.1965297301484666 0.1965297301484666 -0.5225968990368016 
-0.5225968990368016 -0.5225968990368016 -0.5414829249617071 -0.5414829249617071 -0.5414829249617071 -0.5406142063620518 -0.5406142063620518 -0.5406142063620518 -0.418322040899442 
-0.418322040899442 -0.418322040899442 -0.4160586212637148 -0.4160586212637148 -0.4160586212637148 -0.413960782219835 -0.413960782219835 -0.413960782219835 0.373480318742063 
0.373480318742063 0.373480318742063 0.3686713890369316 0.3686713890369316 0.3686713890369316 0.3667731143619612 0.3667731143619612 0.3667731143619612 -0.4397900015113359 
-0.4397900015113359 -0.4397900015113359 -0.4389800304906586 -0.4389800304906586 -0.4389800304906586 -0.436984587962997 -0.436984587962997 -0.436984587962997 -0.3579187367456784 