Title = Triangle100
FileType = Solution
Variables = q
Zone T = Triangle100
ZoneType = FETriangle
Nodes = 99072
Elements = 33024
DataPacking = Block
StrandID = 1
SolutionTime = 0
0.6808209812797498 0.6808209812797498 0.6808209812797498 0.6633274704499466 0.6633274704499466 0.6633274704499466 0.6617868678013143 0.6617868678013143 0.6617868678013143 -0.3504112383348101 
-0.3504112383348101 -0.3504112383348101 -0.328186829307088 -0.328186829307088 -0.328186829307088 0.5378564927007836 0.5378564927007836 0.5378564927007836 0.54422724109065 
0.54422724109065 0.54422724109065 -0.2490396162596255 -0.2490396162596255 -0.2490396162596255 -0.2254489982634882 -0.2254489982634882 -0.2254489982634882 0.9000759296982199 
0.9000759296982199 0.9000759296982199 0.8871511089285697 0.8871511089285697 0.8871511089285697 -0.02130680340034361 -0.02130680340034361 -0.02130680340034361 -0.01512635410782789 
-0.01512635410782789 -0.01512635410782789 -0.6425010460900907 -0.6425010460900907 -0.6425010460900907 -0.6447422951535818 -0.6447422951535818 -0.6447422951535818 0.3949763486652026 
0.3949763486652026 0.3949763486652026 0.3765037104536463 0.3765037104536463 0.3765037104536463 -0.09273457713154544 -0.09273457713154544 -0.09273457713154544 -0.08828102502353426 
-0.08828102502353426 -0.08828102502353426 0.3881605947056963 0.3881605947056963 0.3881605947056963 0.4400878202783643 0.4400878202783643 0.4400878202783643 0.4163639411561368 
0.4163639411561368 0.4163639411561368 0.6512126817433296 0.6512126817433296 0.6512126817433296 0.6385163280992014 0.6385163280992014 0.6385163280992014 -0.1456327271368401 
-0.1456327271368401 -0.1456327271368401 -0.09682273245292942 -0.09682273245292942 -0.09682273245292942 -0.2369246557849677 -0.2369246557849677 -0.2369246557849677 -0.2081515822187591 
-0.2081515822187591 -0.2081515822187591 -0.3997985441120167 -0.3997985441120167 -0.3997985441120167 -0.4138435230321939 -0.4138435230321939 -0.4138435230321939 -0.3741362541388771 
-0.3741362541388771 -0.3741362541388771 -0.3879155596377964 -0.3879155596377964 -0.3879155596377964 -0.4090280257799579 -0.4090280257799579 -0.4090280257799579 0.7570082063418356 
0.7570082063418356 0.7570082063418356 0.7447145694617913 0.7447145694617913 0.7447145694617913 0.7271168757661407 0.7271168757661407 0.7271168757661407 -0.6256530466867695 
-0.6256530466867695 -0.6256530466867695 -0.6435660592745492 -0.6435660592745492 -0.6435660592745492 -0.6138307265687053 -0.6138307265687053 -0.6138307265687053 -0.02529089562051362 
-0.02529089562051362 -0.02529089562051362 -0.0260667982749428 -0.0260667982749428 -0.0260667982749428 -0.01703347816446339 -0.01703347816446339 -0.01703347816446339 0.303479589446804 
0.303479589446804 0.303479589446804 0.305988315645341 0.305988315645341 0.305988315645341 0.2874462263916567 0.2874462263916567 0.2874462263916567 0.2945613419402429 
0.2945613419402429 0.2945613419402429 0.2928568739036421 0.2928568739036421 0.2928568739036421 0.2693620104047659 0.2693620104047659 0.2693620104047659 0.3142833193370346 
0.3142833193370346 0.3142833193370346 0.2908620941987852 0.2908620941987852 0.2908620941987852 0.2916132170075205 0.2916132170075205 0.2916132170075205 0.9956707198129835 
0.9956707198129835 0.9956707198129835 0.9950214083980963 0.9950214083980963 0.9950214083980963 -0.3058958571249056 -0.3058958571249056 -0.3058958571249056 -0.3140038414518012 
-0.3140038414518012 -0.3140038414518012 -0.05732431686942496 -0.05732431686942496 -0.05732431686942496 -0.05378602592939655 -0.05378602592939655 -0.05378602592939655 0.2712815644819775 
0.2712815644819775 0.2712815644819775 0.2997094412107031 0.2997094412107031 0.2997094412107031 0.2904468517907207 0.2904468517907207 0.2904468517907207 0.2880176523635481 
0.2880176523635481 0.2880176523635481 0.687373503922225 0.687373503922225 0.687373503922225 0.7024929016609703 0.7024929016609703 0.7024929016609703 -0.9130806637085217 
-0.9130806637085217 -0.9130806637085217 -0.923339354253065 -0.923339354253065 -0.923339354253065 0.3766673788457874 0.3766673788457874 0.3766673788457874 0.355659499295511 
0.355659499295511 0.355659499295511 -0.7052328368106168 -0.7052328368106168 -0.7052328368106168 -0.7089572503789846 -0.7089572503789846 -0.7089572503789846 -0.1744363110448199 
-0.1744363110448199 -0.1744363110448199 -0.164073228394405 -0.164073228394405 -0.164073228394405 -0.001083159281448276 -0.001083159281448276 -0.001083159281448276 0.01961652810779417 
0.01961652810779417 0.01961652810779417 -0.6071971883093418 -0.6071971883093418 -0.6071971883093418 -0.609455212299456 -0.609455212299456 -0.609455212299456 -0.113790537290124 
-0.113790537290124 -0.113790537290124 -0.1033613465990981 -0.1033613465990981 -0.1033613465990981 -0.8323219839295679 -0.8323219839295679 -0.8323219839295679 -0.8478266929937298 
-0.8478266929937298 -0.8478266929937298 -0.09336442010302752 -0.09336442010302752 -0.09336442010302752 -0.102292339187546 -0.102292339187546 -0.102292339187546 -0.165191422412298 
-0.165191422412298 -0.165191422412298 -0.1557401772586999 -0.1557401772586999 -0.1557401772586999 0.4180004400971939 0.4180004400971939 0.4180004400971939 0.4203353674494004 
0.4203353674494004 0.4203353674494004 -0.0779016939659518 -0.0779016939659518 -0.0779016939659518 -0.05129816557297365 -0.05129816557297365 -0.05129816557297365 0.6292508352574153 
0.6292508352574153 0.6292508352574153 0.6265141754067826 0.6265141754067826 0.6265141754067826 -0.3098703282934364 -0.3098703282934364 -0.3098703282934364 -0.289169250009999 
-0.289169250009999 -0.289169250009999 0.46295523673154 0.46295523673154 0.46295523673154 0.9379643960359731 0.9379643960359731 0.9379643960359731 0.9244837492048206 
0.9244837492048206 0.9244837492048206 -0.06229168258665964 -0.06229168258665964 -0.06229168258665964 -0.06986632635160207 -0.06986632635160207 -0.06986632635160207 -0.4352426674183101 
-0.4352426674183101 -0.4352426674183101 -0.4754737227656444 -0.4754737227656444 -0.4754737227656444 0.9933735292483944 0.9933735292483944 0.9933735292483944 0.9865681224829495 
0.9865681224829495 0.9865681224829495 -0.6156043811729714 -0.6156043811729714 -0.6156043811729714 -0.6304136578235716 -0.6304136578235716 -0.6304136578235716 -0.6071861448596676 
-0.6071861448596676 -0.6071861448596676 -0.5707743686734863 -0.5707743686734863 -0.5707743686734863 0.9963561105971154 0.9963561105971154 0.9963561105971154 0.9914560453734097 
0.9914560453734097 0.9914560453734097 0.6814102831990303 0.6814102831990303 0.6814102831990303 0.6746331009691515 0.6746331009691515 0.6746331009691515 0.8302975052510952 
0.8302975052510952 0.8302975052510952 0.8141152950673972 0.8141152950673972 0.8141152950673972 0.2788573731296731 0.2788573731296731 0.2788573731296731 0.2813051325675822 
0.2813051325675822 0.2813051325675822 -0.3469998099753148 -0.3469998099753148 -0.3469998099753148 -0.3294045631844798 -0.3294045631844798 -0.3294045631844798 0.0443448688200009 
0.0443448688200009 0.0443448688200009 0.05818250152263487 0.05818250152263487 0.05818250152263487 -0.2250885509036925 -0.2250885509036925 -0.2250885509036925 -0.1780494977006238 
-0.1780494977006238 -0.1780494977006238 -0.1770519230294018 -0.1770519230294018 -0.1770519230294018 -0.1787680279929104 -0.1787680279929104 -0.1787680279929104 0.1129312267888807 
0.1129312267888807 0.1129312267888807 0.1565524035055165 0.1565524035055165 0.1565524035055165 0.2463435205865944 0.2463435205865944 0.2463435205865944 0.2297654494920583 
0.2297654494920583 0.2297654494920583 0.314063765568288 0.314063765568288 0.314063765568288 0.2882863100188222 0.2882863100188222 0.2882863100188222 0.2761655176609996 
0.2761655176609996 0.2761655176609996 -0.6439630512364533 -0.6439630512364533 -0.6439630512364533 -0.6055669731659991 -0.6055669731659991 -0.6055669731659991 -0.5983195404067627 
-0.5983195404067627 -0.5983195404067627 -0.7237743554731678 -0.7237743554731678 -0.7237743554731678 -0.7322588354751652 -0.7322588354751652 -0.7322588354751652 -0.7501597566874724 
-0.7501597566874724 -0.7501597566874724 0.4037682702553803 0.4037682702553803 0.4037682702553803 0.4014513910932634 0.4014513910932634 0.4014513910932634 0.3833633559856092 
0.3833633559856092 0.3833633559856092 -0.8370133126311976 -0.8370133126311976 -0.8370133126311976 -0.847502020918192 -0.847502020918192 -0.847502020918192 -0.8617941457666969 
-0.8617941457666969 -0.8617941457666969 -0.03147303963142371 -0.03147303963142371 -0.03147303963142371 -0.02431037244306372 -0.02431037244306372 -0.02431037244306372 0.6485297877077002 
0.6485297877077002 0.6485297877077002 0.6384827536783292 0.6384827536783292 0.6384827536783292 0.6185965917280689 0.6185965917280689 0.6185965917280689 -0.7077694104733985 
-0.7077694104733985 -0.7077694104733985 -0.72364815499729 -0.72364815499729 -0.72364815499729 -0.7412652289904298 -0.7412652289904298 -0.7412652289904298 -0.6912074486806054 
-0.6912074486806054 -0.6912074486806054 -0.6827726048149366 -0.6827726048149366 -0.6827726048149366 -0.6879330069475148 -0.6879330069475148 -0.6879330069475148 -0.1005239747513213 
-0.1005239747513213 -0.1005239747513213 -0.1213168647475809 -0.1213168647475809 -0.1213168647475809 -0.1447727989239538 -0.1447727989239538 -0.1447727989239538 0.2582675919012175 
0.2582675919012175 0.2582675919012175 0.2601639266082658 0.2601639266082658 0.2601639266082658 0.2400664518877338 0.2400664518877338 0.2400664518877338 0.8026028026566429 
0.8026028026566429 0.8026028026566429 0.786092075951613 0.786092075951613 0.786092075951613 0.7793552975183436 0.7793552975183436 0.7793552975183436 0.1157782206611246 
0.1157782206611246 0.1157782206611246 0.1356339938623736 0.1356339938623736 0.1356339938623736 0.1571981240665836 0.1571981240665836 0.1571981240665836 0.2488200084987108 
0.2488200084987108 0.2488200084987108 0.2328289673129856 0.2328289673129856 0.2328289673129856 -0.2923344480958928 -0.2923344480958928 -0.2923344480958928 -0.3042093222978265 
-0.3042093222978265 -0.3042093222978265 -0.3217534884352403 -0.3217534884352403 -0.3217534884352403 -0.6694414583865994 -0.6694414583865994 -0.6694414583865994 -0.6478850948891778 
-0.6478850948891778 -0.6478850948891778 0.2821464314352792 0.2821464314352792 0.2821464314352792 0.2915982225686897 0.2915982225686897 0.2915982225686897 0.4294418140373673 
0.4294418140373673 0.4294418140373673 0.4523325065352566 0.4523325065352566 0.4523325065352566 -0.6585766904476954 -0.6585766904476954 -0.6585766904476954 -0.6721118342261718 
-0.6721118342261718 -0.6721118342261718 0.6845356491338014 0.6845356491338014 0.6845356491338014 0.6692149372496166 0.6692149372496166 0.6692149372496166 0.6868808430174688 
0.6868808430174688 0.6868808430174688 0.6957642703668858 0.6957642703668858 0.6957642703668858 -0.2706909985933548 -0.2706909985933548 -0.2706909985933548 -0.25220891916816 
-0.25220891916816 -0.25220891916816 0.9374033806378084 0.9374033806378084 0.9374033806378084 0.9278512775053844 0.9278512775053844 0.9278512775053844 0.0256759423783393 
0.0256759423783393 0.0256759423783393 0.01850539489912675 0.01850539489912675 0.01850539489912675 -0.2521089053335925 -0.2521089053335925 -0.2521089053335925 -0.2307375588724008 
-0.2307375588724008 -0.2307375588724008 0.2743407221878002 0.2743407221878002 0.2743407221878002 0.2561687042525488 0.2561687042525488 0.2561687042525488 0.4548287903454328 
0.4548287903454328 0.4548287903454328 0.4577921540912269 0.4577921540912269 0.4577921540912269 -0.3410884644414352 -0.3410884644414352 -0.3410884644414352 -0.3298244320966041 
-0.3298244320966041 -0.3298244320966041 0.1119289122282043 0.1119289122282043 0.1119289122282043 0.09418916936655118 0.09418916936655118 0.09418916936655118 0.9915289139477929 
0.9915289139477929 0.9915289139477929 0.9942818323081557 0.9942818323081557 0.9942818323081557 -0.694278802966807 -0.694278802966807 -0.694278802966807 -0.7076195779719843 
-0.7076195779719843 -0.7076195779719843 -0.7075403601754917 -0.7075403601754917 -0.7075403601754917 -0.7184561788111189 -0.7184561788111189 -0.7184561788111189 0.7003752364205539 
0.7003752364205539 0.7003752364205539 0.7170883399602775 0.7170883399602775 0.7170883399602775 -0.2372881661613838 -0.2372881661613838 -0.2372881661613838 -0.2429387745632271 
-0.2429387745632271 -0.2429387745632271 -0.1071837310141091 -0.1071837310141091 -0.1071837310141091 -0.1119085791010631 -0.1119085791010631 -0.1119085791010631 0.5775658701171688 
0.5775658701171688 0.5775658701171688 0.5609350099833113 0.5609350099833113 0.5609350099833113 -0.1647909712755725 -0.1647909712755725 -0.1647909712755725 -0.1565708244711089 
-0.1565708244711089 -0.1565708244711089 0.949709200964875 0.949709200964875 0.949709200964875 0.9560955231764542 0.9560955231764542 0.9560955231764542 -0.03467089091474691 
-0.03467089091474691 -0.03467089091474691 -0.04113781913096926 -0.04113781913096926 -0.04113781913096926 -0.6148306550760158 -0.6148306550760158 -0.6148306550760158 -0.5947455855428578 
-0.5947455855428578 -0.5947455855428578 -0.4863924016217368 -0.4863924016217368 -0.4863924016217368 -0.4814144502624721 -0.4814144502624721 -0.4814144502624721 0.008976427870814123 
0.008976427870814123 0.008976427870814123 0.01634747839174417 0.01634747839174417 0.01634747839174417 -0.1088389404249231 -0.1088389404249231 -0.1088389404249231 -0.1269663277646235 
-0.1269663277646235 -0.1269663277646235 0.22867214737031 0.22867214737031 0.22867214737031 0.211307990518898 0.211307990518898 0.211307990518898 -0.5947893159113056 
-0.5947893159113056 -0.5947893159113056 -0.5755319881419766 -0.5755319881419766 -0.5755319881419766 0.2047314344276255 0.2047314344276255 0.2047314344276255 0.2014220673576963 
0.2014220673576963 0.2014220673576963 0.194615540742515 0.194615540742515 0.194615540742515 0.1758447637056186 0.1758447637056186 0.1758447637056186 0.7687063396698428 
0.7687063396698428 0.7687063396698428 0.7801236058383724 0.7801236058383724 0.7801236058383724 0.9991669060467285 0.9991669060467285 0.9991669060467285 0.9985051964509563 
0.9985051964509563 0.9985051964509563 -0.5938224892894001 -0.5938224892894001 -0.5938224892894001 0.1437581638749202 0.1437581638749202 0.1437581638749202 0.1266455915580879 
0.1266455915580879 0.1266455915580879 -0.9674502808887259 -0.9674502808887259 -0.9674502808887259 -0.9763805884284357 -0.9763805884284357 -0.9763805884284357 -0.9427257109203405 
-0.9427257109203405 -0.9427257109203405 -0.9445595085533206 -0.9445595085533206 -0.9445595085533206 0.1291375723907757 0.1291375723907757 0.1291375723907757 0.1218488424453487 
0.1218488424453487 0.1218488424453487 -0.2372777122225057 -0.2372777122225057 -0.2372777122225057 -0.2416937319916626 -0.2416937319916626 -0.2416937319916626 -0.1200916697608681 
-0.1200916697608681 -0.1200916697608681 -0.1266460657209077 -0.1266460657209077 -0.1266460657209077 0.2633142932834998 0.2633142932834998 0.2633142932834998 0.2828201265708298 
0.2828201265708298 0.2828201265708298 -0.7672106165661 -0.7672106165661 -0.7672106165661 -0.7500872808513561 -0.7500872808513561 -0.7500872808513561 0.6725976696158866 
0.6725976696158866 0.6725976696158866 0.6728485261915133 0.6728485261915133 0.6728485261915133 -0.7329140796422196 -0.7329140796422196 -0.7329140796422196 -0.7332048917846635 
-0.7332048917846635 -0.7332048917846635 -0.02372739448710903 -0.02372739448710903 -0.02372739448710903 0.2013605185773454 0.2013605185773454 0.2013605185773454 0.1925862560685889 
0.1925862560685889 0.1925862560685889 0.3649955708078917 0.3649955708078917 0.3649955708078917 0.3656615588954455 0.3656615588954455 0.3656615588954455 -0.1613276532657937 
-0.1613276532657937 -0.1613276532657937 -0.1712535491073357 -0.1712535491073357 -0.1712535491073357 -0.07881114922507661 -0.07881114922507661 -0.07881114922507661 -0.08095182022435299 
-0.08095182022435299 -0.08095182022435299 0.5534580276817577 0.5534580276817577 0.5534580276817577 0.5652543381753344 0.5652543381753344 0.5652543381753344 0.3162542458655947 
0.3162542458655947 0.3162542458655947 0.2364145683200052 0.2364145683200052 0.2364145683200052 0.2506423483677132 0.2506423483677132 0.2506423483677132 -0.2905724898399558 
-0.2905724898399558 -0.2905724898399558 -0.3083939721932496 -0.3083939721932496 -0.3083939721932496 -0.831657004387903 -0.831657004387903 -0.831657004387903 -0.8315410900567911 
-0.8315410900567911 -0.8315410900567911 -0.8660116234562441 -0.8660116234562441 -0.8660116234562441 -0.8884767282232618 -0.8884767282232618 -0.8884767282232618 -0.2996097858648754 
-0.2996097858648754 -0.2996097858648754 -0.2870897735683186 -0.2870897735683186 -0.2870897735683186 0.8616947186588718 0.8616947186588718 0.8616947186588718 0.8482782795300229 
0.8482782795300229 0.8482782795300229 0.00927356273004375 0.00927356273004375 0.00927356273004375 0.03163765330125353 0.03163765330125353 0.03163765330125353 0.3905143806889756 
0.3905143806889756 0.3905143806889756 0.369354903284791 0.369354903284791 0.369354903284791 0.7238994612989078 0.7238994612989078 0.7238994612989078 0.6908286241484638 
0.6908286241484638 0.6908286241484638 0.1909926113288068 0.1909926113288068 0.1909926113288068 0.214028199597471 0.214028199597471 0.214028199597471 0.2722713265517537 
0.2722713265517537 0.2722713265517537 0.2693573295675211 0.2693573295675211 0.2693573295675211 -0.4505350501657665 -0.4505350501657665 -0.4505350501657665 -0.4648626728465143 
-0.4648626728465143 -0.4648626728465143 0.1992422861422598 0.1992422861422598 0.1992422861422598 0.2202731973899777 0.2202731973899777 0.2202731973899777 -0.1102935749817003 
-0.1102935749817003 -0.1102935749817003 -0.1229078030401242 -0.1229078030401242 -0.1229078030401242 -0.06246942085774033 -0.06246942085774033 -0.06246942085774033 0.01283179675285905 
0.01283179675285905 0.01283179675285905 -0.4551024174550491 -0.4551024174550491 -0.4551024174550491 -0.8737777514151294 -0.8737777514151294 -0.8737777514151294 -0.847281635180004 
-0.847281635180004 -0.847281635180004 -0.1207161920411151 -0.1207161920411151 -0.1207161920411151 -0.09060297202345698 -0.09060297202345698 -0.09060297202345698 0.9922181226211313 
0.9922181226211313 0.9922181226211313 0.9878952624320801 0.9878952624320801 0.9878952624320801 -0.07550256195676165 -0.07550256195676165 -0.07550256195676165 -0.0762049097892218 
-0.0762049097892218 -0.0762049097892218 0.7138293740207339 0.7138293740207339 0.7138293740207339 0.6811128917193889 0.6811128917193889 0.6811128917193889 -0.09134685825135641 
-0.09134685825135641 -0.09134685825135641 -0.1289926776648322 -0.1289926776648322 -0.1289926776648322 -0.6498320627106799 -0.6498320627106799 -0.6498320627106799 -0.6120297168090225 
-0.6120297168090225 -0.6120297168090225 -0.1119314103345989 -0.1119314103345989 -0.1119314103345989 -0.07335489364897255 -0.07335489364897255 -0.07335489364897255 -0.8703342121810742 
-0.8703342121810742 -0.8703342121810742 -0.8924229548634455 -0.8924229548634455 -0.8924229548634455 -0.6802674399465297 -0.6802674399465297 -0.6802674399465297 -0.7185652842639433 
-0.7185652842639433 -0.7185652842639433 0.2471590599273411 0.2471590599273411 0.2471590599273411 0.2833014974424432 0.2833014974424432 0.2833014974424432 -0.01339999826926765 
-0.01339999826926765 -0.01339999826926765 0.03196648134471452 0.03196648134471452 0.03196648134471452 0.5444507357075818 0.5444507357075818 0.5444507357075818 0.5602484002781506 
0.5602484002781506 0.5602484002781506 -0.00942689102584838 -0.00942689102584838 -0.00942689102584838 -0.03750498338824172 -0.03750498338824172 -0.03750498338824172 0.5488415314358791 
0.5488415314358791 0.5488415314358791 0.5407270952020157 0.5407270952020157 0.5407270952020157 0.08568502678996343 0.08568502678996343 0.08568502678996343 0.05895597561479397 
0.05895597561479397 0.05895597561479397 -0.4238290396653853 -0.4238290396653853 -0.4238290396653853 0.176611265309908 0.176611265309908 0.176611265309908 0.1678497300040082 
0.1678497300040082 0.1678497300040082 -0.05495104903613755 -0.05495104903613755 -0.05495104903613755 -0.04216155765796947 -0.04216155765796947 -0.04216155765796947 -0.822308076785042 
-0.822308076785042 -0.822308076785042 -0.7952793392674303 -0.7952793392674303 -0.7952793392674303 -0.3095049908352783 -0.3095049908352783 -0.3095049908352783 -0.2601193943581417 
-0.2601193943581417 -0.2601193943581417 -0.3020274195826715 -0.3020274195826715 -0.3020274195826715 -0.2924631886971399 -0.2924631886971399 -0.2924631886971399 -0.08366394576362551 
-0.08366394576362551 -0.08366394576362551 -0.07834248302550834 -0.07834248302550834 -0.07834248302550834 0.0480710021810592 0.0480710021810592 0.0480710021810592 0.07459138593891015 
0.07459138593891015 0.07459138593891015 0.4268913683927019 0.4268913683927019 0.4268913683927019 0.4281448592529571 0.4281448592529571 0.4281448592529571 -0.7250556731088718 
-0.7250556731088718 -0.7250556731088718 -0.7286203297614717 -0.7286203297614717 -0.7286203297614717 -0.4186303619805462 -0.4186303619805462 -0.4186303619805462 -0.3959271284850508 
-0.3959271284850508 -0.3959271284850508 -0.1019001244519819 -0.1019001244519819 -0.1019001244519819 -0.09998896144075731 -0.09998896144075731 -0.09998896144075731 0.3632440127945448 
0.3632440127945448 0.3632440127945448 0.3251024863944811 0.3251024863944811 0.3251024863944811 0.04348346325931428 0.04348346325931428 0.04348346325931428 0.06245602229495829 
0.06245602229495829 0.06245602229495829 0.8552554484192721 0.8552554484192721 0.8552554484192721 0.8436175192577344 0.8436175192577344 0.8436175192577344 0.118780635407345 
0.118780635407345 0.118780635407345 0.1488867861097679 0.1488867861097679 0.1488867861097679 -0.7441415948413499 -0.7441415948413499 -0.7441415948413499 -0.7093797878826213 
-0.7093797878826213 -0.7093797878826213 -0.7545559652850279 -0.7545559652850279 -0.7545559652850279 -0.7855162376416331 -0.7855162376416331 -0.7855162376416331 0.1104417955859468 
0.1104417955859468 0.1104417955859468 0.1082049662063982 0.1082049662063982 0.1082049662063982 -0.6297490814134501 -0.6297490814134501 -0.6297490814134501 -0.6612881172424467 
-0.6612881172424467 -0.6612881172424467 -0.04168297884817464 -0.04168297884817464 -0.04168297884817464 -0.02192188580363502 -0.02192188580363502 -0.02192188580363502 0.6565886439772054 
0.6565886439772054 0.6565886439772054 0.6334339760297742 0.6334339760297742 0.6334339760297742 0.9271417389015616 0.9271417389015616 0.9271417389015616 0.9132743319274527 
0.9132743319274527 0.9132743319274527 -0.5560200334399529 -0.5560200334399529 -0.5560200334399529 -0.6006474913450074 -0.6006474913450074 -0.6006474913450074 -0.03306622534993858 
-0.03306622534993858 -0.03306622534993858 -0.07513241437861211 -0.07513241437861211 -0.07513241437861211 0.7285225125296134 0.7285225125296134 0.7285225125296134 0.7077866011913967 
0.7077866011913967 0.7077866011913967 -0.1219013289825713 -0.1219013289825713 -0.1219013289825713 -0.1262373623201483 -0.1262373623201483 -0.1262373623201483 0.4493685268814909 
0.4493685268814909 0.4493685268814909 0.4158266691505552 0.4158266691505552 0.4158266691505552 -0.009762911868981292 -0.009762911868981292 -0.009762911868981292 -0.01150323230086201 
-0.01150323230086201 -0.01150323230086201 0.3861873376157473 0.3861873376157473 0.3861873376157473 0.3621807855780832 0.3621807855780832 0.3621807855780832 0.6706568600829326 
0.6706568600829326 0.6706568600829326 0.6530398592478244 0.6530398592478244 0.6530398592478244 -0.3181478705324189 -0.3181478705324189 -0.3181478705324189 -0.3637418680240082 
-0.3637418680240082 -0.3637418680240082 -0.3589289523876435 -0.3589289523876435 -0.3589289523876435 -0.3413466656846055 -0.3413466656846055 -0.3413466656846055 -0.1965599583778213 
-0.1965599583778213 -0.1965599583778213 -0.2340870119210481 -0.2340870119210481 -0.2340870119210481 -0.4389460805214811 -0.4389460805214811 -0.4389460805214811 -0.4624637500214623 
-0.4624637500214623 -0.4624637500214623 -0.1468406490311215 -0.1468406490311215 -0.1468406490311215 -0.1784038151094138 -0.1784038151094138 -0.1784038151094138 0.02055510138153768 
0.02055510138153768 0.02055510138153768 0.02180728878228097 0.02180728878228097 0.02180728878228097 0.2325878670111235 0.2325878670111235 0.2325878670111235 0.188290071933226 
0.188290071933226 0.188290071933226 -0.1267224326763359 -0.1267224326763359 -0.1267224326763359 -0.1573358966690157 -0.1573358966690157 -0.1573358966690157 -0.1182022166176504 
-0.1182022166176504 -0.1182022166176504 -0.1563540579918584 -0.1563540579918584 -0.1563540579918584 0.8896107104154242 0.8896107104154242 0.8896107104154242 0.9055175949538894 
0.9055175949538894 0.9055175949538894 0.2442130136571415 0.2442130136571415 0.2442130136571415 0.1958373266864546 0.1958373266864546 0.1958373266864546 0.7643156908758238 
0.7643156908758238 0.7643156908758238 0.7419334186135312 0.7419334186135312 0.7419334186135312 -0.06020310181206198 -0.06020310181206198 -0.06020310181206198 -0.09955929452228254 
-0.09955929452228254 -0.09955929452228254 0.3919939275922096 0.3919939275922096 0.3919939275922096 0.3692917339356082 0.3692917339356082 0.3692917339356082 0.3661892970760843 
0.3661892970760843 0.3661892970760843 0.3852829438866942 0.3852829438866942 0.3852829438866942 0.01980361182540299 0.01980361182540299 0.01980361182540299 0.02563207515593082 
0.02563207515593082 0.02563207515593082 0.01981363665772585 0.01981363665772585 0.01981363665772585 0.09974720617763017 0.09974720617763017 0.09974720617763017 0.1020655308722114 
0.1020655308722114 0.1020655308722114 0.1273629544915183 0.1273629544915183 0.1273629544915183 -0.8126893244853377 -0.8126893244853377 -0.8126893244853377 -0.7953255815010506 
-0.7953255815010506 -0.7953255815010506 -0.7853311034806856 -0.7853311034806856 -0.7853311034806856 -0.3655047110687104 -0.3655047110687104 -0.3655047110687104 -0.3704611655582871 
-0.3704611655582871 -0.3704611655582871 -0.3539597908316616 -0.3539597908316616 -0.3539597908316616 0.02164097195085637 0.02164097195085637 0.02164097195085637 0.01535973321956681 
0.01535973321956681 0.01535973321956681 0.006977479163867413 0.006977479163867413 0.006977479163867413 -0.2308248661056628 -0.2308248661056628 -0.2308248661056628 -0.2004688340070582 
-0.2004688340070582 -0.2004688340070582 -0.1852681763456286 -0.1852681763456286 -0.1852681763456286 0.9226537780738834 0.9226537780738834 0.9226537780738834 -0.2487104643037659 
-0.2487104643037659 -0.2487104643037659 -0.2703715575221834 -0.2703715575221834 -0.2703715575221834 -0.28456267597303 -0.28456267597303 -0.28456267597303 0.6530516246170569 
0.6530516246170569 0.6530516246170569 0.631864720571406 0.631864720571406 0.631864720571406 0.6120632552185404 0.6120632552185404 0.6120632552185404 -0.3577604459662476 
-0.3577604459662476 -0.3577604459662476 -0.369307049912159 -0.369307049912159 -0.369307049912159 -0.3896724583082072 -0.3896724583082072 -0.3896724583082072 -0.0731456449281782 
-0.0731456449281782 -0.0731456449281782 -0.0330183739763979 -0.0330183739763979 -0.0330183739763979 -0.01679510408690866 -0.01679510408690866 -0.01679510408690866 -0.2848041318982804 
-0.2848041318982804 -0.2848041318982804 -0.2667000079971856 -0.2667000079971856 -0.2667000079971856 -0.2447816006571152 -0.2447816006571152 -0.2447816006571152 -0.7294532453778393 
-0.7294532453778393 -0.7294532453778393 -0.7387175058583854 -0.7387175058583854 -0.7387175058583854 -0.6945972366492195 -0.6945972366492195 -0.6945972366492195 0.1590512861252993 
0.1590512861252993 0.1590512861252993 0.1411703765906588 0.1411703765906588 0.1411703765906588 0.1287158750722044 0.1287158750722044 0.1287158750722044 -0.1484556190784611 
-0.1484556190784611 -0.1484556190784611 -0.1678182363859823 -0.1678182363859823 -0.1678182363859823 -0.1835445634531608 -0.1835445634531608 -0.1835445634531608 -0.3205389166515991 
-0.3205389166515991 -0.3205389166515991 -0.3372587373054821 -0.3372587373054821 -0.3372587373054821 -0.3267922364409552 -0.3267922364409552 -0.3267922364409552 0.05141641366323313 
0.05141641366323313 0.05141641366323313 0.03125152833763156 0.03125152833763156 0.03125152833763156 0.01288670709005549 0.01288670709005549 0.01288670709005549 -0.8585846368468139 
-0.8585846368468139 -0.8585846368468139 -0.8708582227116741 -0.8708582227116741 -0.8708582227116741 -0.8820559027559125 -0.8820559027559125 -0.8820559027559125 0.2561281024888435 
0.2561281024888435 0.2561281024888435 0.273438449338759 0.273438449338759 0.273438449338759 0.2731657067807503 0.2731657067807503 0.2731657067807503 0.4363231919408388 
0.4363231919408388 0.4363231919408388 0.4580804414575895 0.4580804414575895 0.4580804414575895 0.4676970300117318 0.4676970300117318 0.4676970300117318 0.9779085859388899 
0.9779085859388899 0.9779085859388899 0.9869615873078887 0.9869615873078887 0.9869615873078887 0.9911243504727805 0.9911243504727805 0.9911243504727805 -0.001560098412942678 
-0.001560098412942678 -0.001560098412942678 -0.005890582978845154 -0.005890582978845154 -0.005890582978845154 -0.02074727377184108 -0.02074727377184108 -0.02074727377184108 -0.09689904224145622 
-0.09689904224145622 -0.09689904224145622 -0.08193620137861264 -0.08193620137861264 -0.08193620137861264 -0.0716833740688148 -0.0716833740688148 -0.0716833740688148 0.3158869081343112 
0.3158869081343112 0.3158869081343112 0.3042929846323658 0.3042929846323658 0.3042929846323658 0.2781523304773712 0.2781523304773712 0.2781523304773712 -0.8797986529758485 
-0.8797986529758485 -0.8797986529758485 -0.8869436249450809 -0.8869436249450809 -0.8869436249450809 -0.8758633577328238 -0.8758633577328238 -0.8758633577328238 -0.1756399805310296 
-0.1756399805310296 -0.1756399805310296 -0.1613561682664162 -0.1613561682664162 -0.1613561682664162 -0.1413903748219076 -0.1413903748219076 -0.1413903748219076 -0.1205096464041571 
-0.1205096464041571 -0.1205096464041571 -0.1406561553324377 -0.1406561553324377 -0.1406561553324377 -0.1550472589134567 -0.1550472589134567 -0.1550472589134567 -0.3374298972164023 