Title = Triangle100
FileType = Solution
Variables = q
Zone T = Triangle100
ZoneType = FETriangle
Nodes = 99072
Elements = 33024
DataPacking = Block
StrandID = 16
SolutionTime = 1.5
0.1475551618762907 0.1475551618762907 0.1475551618762907 0.1308573912429848 0.1308573912429848 0.1308573912429848 0.135275519988129 0.135275519988129 0.135275519988129 0.1449068193083348 
0.1449068193083348 0.1449068193083348 0.2119036771633933 0.2119036771633933 0.2119036771633933 0.1985952777523939 0.1985952777523939 0.1985952777523939 0.2387147813102515 
0.2387147813102515 0.2387147813102515 -0.3952798172878422 -0.3952798172878422 -0.3952798172878422 -0.3915411947704069 -0.3915411947704069 -0.3915411947704069 0.3937375111022304 
0.3937375111022304 0.3937375111022304 0.3922429942682298 0.3922429942682298 0.3922429942682298 0.4384931373326681 0.4384931373326681 0.4384931373326681 0.4861790540422267 
0.4861790540422267 0.4861790540422267 -0.1026993504022881 -0.1026993504022881 -0.1026993504022881 -0.1044259609633431 -0.1044259609633431 -0.1044259609633431 -0.1973967614646943 
-0.1973967614646943 -0.1973967614646943 -0.2137621007017047 -0.2137621007017047 -0.2137621007017047 0.2821189231065339 0.2821189231065339 0.2821189231065339 0.282149553461968 
0.282149553461968 0.282149553461968 0.4418545615308818 0.4418545615308818 0.4418545615308818 0.4389897799678336 0.4389897799678336 0.4389897799678336 0.3826460807359827 
0.3826460807359827 0.3826460807359827 0.3643388332459723 0.3643388332459723 0.3643388332459723 0.3626519170998818 0.3626519170998818 0.3626519170998818 -0.209025663222213 
-0.209025663222213 -0.209025663222213 -0.1972100941325017 -0.1972100941325017 -0.1972100941325017 -0.444434961842311 -0.444434961842311 -0.444434961842311 -0.4543264473815166 
-0.4543264473815166 -0.4543264473815166 0.1773114619802268 0.1773114619802268 0.1773114619802268 0.1225667742246801 0.1225667742246801 0.1225667742246801 -0.3377136726532622 
-0.3377136726532622 -0.3377136726532622 -0.3389516095492441 -0.3389516095492441 -0.3389516095492441 -0.3407200443708133 -0.3407200443708133 -0.3407200443708133 0.3749626798451871 
0.3749626798451871 0.3749626798451871 0.3733207426864711 0.3733207426864711 0.3733207426864711 0.3720474302421239 0.3720474302421239 0.3720474302421239 -0.4767983450127941 
-0.4767983450127941 -0.4767983450127941 -0.4752995214800214 -0.4752995214800214 -0.4752995214800214 -0.4800329459581422 -0.4800329459581422 -0.4800329459581422 0.5050758226995938 
0.5050758226995938 0.5050758226995938 0.4952087783147988 0.4952087783147988 0.4952087783147988 0.4918991290192619 0.4918991290192619 0.4918991290192619 -0.2215139873129243 
-0.2215139873129243 -0.2215139873129243 -0.2199416935497922 -0.2199416935497922 -0.2199416935497922 -0.2195393239447354 -0.2195393239447354 -0.2195393239447354 0.03029503582408691 
0.03029503582408691 0.03029503582408691 0.03401059649512241 0.03401059649512241 0.03401059649512241 0.03178184957784577 0.03178184957784577 0.03178184957784577 0.3307492069116712 
0.3307492069116712 0.3307492069116712 0.3292344293895009 0.3292344293895009 0.3292344293895009 0.3289245827843806 0.3289245827843806 0.3289245827843806 0.4192044362885105 
0.4192044362885105 0.4192044362885105 0.4171794651777843 0.4171794651777843 0.4171794651777843 -0.510554679676343 -0.510554679676343 -0.510554679676343 -0.5080659326510405 
-0.5080659326510405 -0.5080659326510405 -0.589651525574431 -0.589651525574431 -0.589651525574431 -0.5850420472485434 -0.5850420472485434 -0.5850420472485434 0.261857010290642 
0.261857010290642 0.261857010290642 0.2617865033563052 0.2617865033563052 0.2617865033563052 -0.2102020178684966 -0.2102020178684966 -0.2102020178684966 -0.2153078161998451 
-0.2153078161998451 -0.2153078161998451 0.1287523468595734 0.1287523468595734 0.1287523468595734 0.1412216558054366 0.1412216558054366 0.1412216558054366 -0.4364594947269255 
-0.4364594947269255 -0.4364594947269255 -0.4349850994473918 -0.4349850994473918 -0.4349850994473918 0.1039050033846838 0.1039050033846838 0.1039050033846838 0.05296042054431141 
0.05296042054431141 0.05296042054431141 -0.1433634141362132 -0.1433634141362132 -0.1433634141362132 -0.135988208290537 -0.135988208290537 -0.135988208290537 -0.389737315289181 
-0.389737315289181 -0.389737315289181 -0.3299589680654529 -0.3299589680654529 -0.3299589680654529 0.2048191895399494 0.2048191895399494 0.2048191895399494 0.2034448459247114 
0.2034448459247114 0.2034448459247114 -0.08619954735065305 -0.08619954735065305 -0.08619954735065305 -0.0891619823062314 -0.0891619823062314 -0.0891619823062314 -0.3115700877225265 
-0.3115700877225265 -0.3115700877225265 -0.3099159828426282 -0.3099159828426282 -0.3099159828426282 -0.4622736898033494 -0.4622736898033494 -0.4622736898033494 -0.460801761819262 
-0.460801761819262 -0.460801761819262 -0.310288091966045 -0.310288091966045 -0.310288091966045 -0.3114712655191034 -0.3114712655191034 -0.3114712655191034 -0.01013766119676546 
-0.01013766119676546 -0.01013766119676546 0.001686323666330562 0.001686323666330562 0.001686323666330562 0.445135581246928 0.445135581246928 0.445135581246928 0.4388417520822022 
0.4388417520822022 0.4388417520822022 -0.1890909649228469 -0.1890909649228469 -0.1890909649228469 -0.1923955022169906 -0.1923955022169906 -0.1923955022169906 0.1063869868214197 
0.1063869868214197 0.1063869868214197 0.10490625469708 0.10490625469708 0.10490625469708 0.2124116351064096 0.2124116351064096 0.2124116351064096 0.2463799848145768 
0.2463799848145768 0.2463799848145768 0.3457500944705303 0.3457500944705303 0.3457500944705303 0.4014426444111944 0.4014426444111944 0.4014426444111944 0.3983190176523338 
0.3983190176523338 0.3983190176523338 0.2903607178871631 0.2903607178871631 0.2903607178871631 0.2963890325686516 0.2963890325686516 0.2963890325686516 -0.05473065353692247 
-0.05473065353692247 -0.05473065353692247 -0.06246917001838918 -0.06246917001838918 -0.06246917001838918 0.422367436024274 0.422367436024274 0.422367436024274 0.4189938809618997 
0.4189938809618997 0.4189938809618997 -0.110776677989744 -0.110776677989744 -0.110776677989744 -0.1076338163065853 -0.1076338163065853 -0.1076338163065853 -0.4831432127698877 
-0.4831432127698877 -0.4831432127698877 -0.48495567563035 -0.48495567563035 -0.48495567563035 0.4190021337089697 0.4190021337089697 0.4190021337089697 0.4165930402891362 
0.4165930402891362 0.4165930402891362 0.1126768048836748 0.1126768048836748 0.1126768048836748 0.1185377105665389 0.1185377105665389 0.1185377105665389 0.3910856785293706 
0.3910856785293706 0.3910856785293706 0.3874423974554001 0.3874423974554001 0.3874423974554001 -0.2080059316437536 -0.2080059316437536 -0.2080059316437536 -0.2023310608080254 
-0.2023310608080254 -0.2023310608080254 0.2299882324770845 0.2299882324770845 0.2299882324770845 0.2409565530664567 0.2409565530664567 0.2409565530664567 -0.2879573554326047 
-0.2879573554326047 -0.2879573554326047 -0.2780016268973467 -0.2780016268973467 -0.2780016268973467 -0.3236191755646732 -0.3236191755646732 -0.3236191755646732 -0.3191486539035133 
-0.3191486539035133 -0.3191486539035133 -0.2960688214242646 -0.2960688214242646 -0.2960688214242646 -0.3794043846292702 -0.3794043846292702 -0.3794043846292702 -0.2836586863176745 
-0.2836586863176745 -0.2836586863176745 -0.2659600528117195 -0.2659600528117195 -0.2659600528117195 0.3259109191528068 0.3259109191528068 0.3259109191528068 0.3229331801044394 
0.3229331801044394 0.3229331801044394 0.151028088804205 0.151028088804205 0.151028088804205 0.1519605573126091 0.1519605573126091 0.1519605573126091 0.1535285683083769 
0.1535285683083769 0.1535285683083769 -0.4629475086547868 -0.4629475086547868 -0.4629475086547868 -0.4625277981694234 -0.4625277981694234 -0.4625277981694234 -0.4529633308964754 
-0.4529633308964754 -0.4529633308964754 -0.4762405453168644 -0.4762405453168644 -0.4762405453168644 -0.4741035110583947 -0.4741035110583947 -0.4741035110583947 -0.4728204124186635 
-0.4728204124186635 -0.4728204124186635 0.04722996074140979 0.04722996074140979 0.04722996074140979 0.04562840847614877 0.04562840847614877 0.04562840847614877 0.04415542278544192 
0.04415542278544192 0.04415542278544192 -0.3867493597189496 -0.3867493597189496 -0.3867493597189496 -0.3887486238086832 -0.3887486238086832 -0.3887486238086832 -0.390428918372752 
-0.390428918372752 -0.390428918372752 0.5118088338026801 0.5118088338026801 0.5118088338026801 0.5441704858006979 0.5441704858006979 0.5441704858006979 0.08350528782969154 
0.08350528782969154 0.08350528782969154 0.084723164580165 0.084723164580165 0.084723164580165 0.07527231389228564 0.07527231389228564 0.07527231389228564 -0.1909958717863396 
-0.1909958717863396 -0.1909958717863396 -0.2536391760638012 -0.2536391760638012 -0.2536391760638012 -0.2830663487034166 -0.2830663487034166 -0.2830663487034166 -0.3885357630386749 
-0.3885357630386749 -0.3885357630386749 -0.3685666647483338 -0.3685666647483338 -0.3685666647483338 -0.3692775826769013 -0.3692775826769013 -0.3692775826769013 0.2128356575187109 
0.2128356575187109 0.2128356575187109 0.1101034571999745 0.1101034571999745 0.1101034571999745 0.1160196355284552 0.1160196355284552 0.1160196355284552 -0.2157565120401088 
-0.2157565120401088 -0.2157565120401088 -0.2137512247945264 -0.2137512247945264 -0.2137512247945264 -0.2137388293379631 -0.2137388293379631 -0.2137388293379631 0.3819859697800648 
0.3819859697800648 0.3819859697800648 0.3764377418804249 0.3764377418804249 0.3764377418804249 0.3754102727405016 0.3754102727405016 0.3754102727405016 0.2788059214959467 
0.2788059214959467 0.2788059214959467 0.3192830601658071 0.3192830601658071 0.3192830601658071 0.3231509618132126 0.3231509618132126 0.3231509618132126 0.1544868964450787 
0.1544868964450787 0.1544868964450787 0.155967791093341 0.155967791093341 0.155967791093341 -0.5046474708361393 -0.5046474708361393 -0.5046474708361393 -0.5032491816448642 
-0.5032491816448642 -0.5032491816448642 -0.5022258115264995 -0.5022258115264995 -0.5022258115264995 -0.101213196892925 -0.101213196892925 -0.101213196892925 -0.09206631906539403 
-0.09206631906539403 -0.09206631906539403 0.1636450755432882 0.1636450755432882 0.1636450755432882 0.1617009992908244 0.1617009992908244 0.1617009992908244 0.1396576558480775 
0.1396576558480775 0.1396576558480775 0.1420666858455376 0.1420666858455376 0.1420666858455376 -0.150652629447132 -0.150652629447132 -0.150652629447132 -0.1670313708017972 
-0.1670313708017972 -0.1670313708017972 0.3685225365620353 0.3685225365620353 0.3685225365620353 0.3663813986222957 0.3663813986222957 0.3663813986222957 0.3022489578080857 
0.3022489578080857 0.3022489578080857 0.3257096914306297 0.3257096914306297 0.3257096914306297 -0.3414821275400351 -0.3414821275400351 -0.3414821275400351 -0.3509348540946771 
-0.3509348540946771 -0.3509348540946771 0.4028652729921808 0.4028652729921808 0.4028652729921808 0.4012577984642828 0.4012577984642828 0.4012577984642828 -0.5424710589476541 
-0.5424710589476541 -0.5424710589476541 -0.5512984578522621 -0.5512984578522621 -0.5512984578522621 0.2509530423603753 0.2509530423603753 0.2509530423603753 0.262447479197516 
0.262447479197516 0.262447479197516 -0.2396000558571724 -0.2396000558571724 -0.2396000558571724 -0.2375656330691339 -0.2375656330691339 -0.2375656330691339 0.1136262281776803 
0.1136262281776803 0.1136262281776803 0.1118156142543395 0.1118156142543395 0.1118156142543395 -0.06769440549046812 -0.06769440549046812 -0.06769440549046812 0.01278493830162323 
0.01278493830162323 0.01278493830162323 -0.2741075464611282 -0.2741075464611282 -0.2741075464611282 -0.2836036773075923 -0.2836036773075923 -0.2836036773075923 0.4255016011810401 
0.4255016011810401 0.4255016011810401 0.4237327794938535 0.4237327794938535 0.4237327794938535 -0.3706119823171153 -0.3706119823171153 -0.3706119823171153 -0.3722172792421597 
-0.3722172792421597 -0.3722172792421597 -0.3728447675406722 -0.3728447675406722 -0.3728447675406722 -0.3740038823405681 -0.3740038823405681 -0.3740038823405681 0.1927848067831747 
0.1927848067831747 0.1927848067831747 0.201217782264456 0.201217782264456 0.201217782264456 -0.3250602566462571 -0.3250602566462571 -0.3250602566462571 -0.3253240129874903 
-0.3253240129874903 -0.3253240129874903 -0.4793553853818214 -0.4793553853818214 -0.4793553853818214 -0.5054975905853023 -0.5054975905853023 -0.5054975905853023 0.1107106329920377 
0.1107106329920377 0.1107106329920377 0.1116681798865194 0.1116681798865194 0.1116681798865194 -0.4369192180582678 -0.4369192180582678 -0.4369192180582678 -0.4760958992417251 
-0.4760958992417251 -0.4760958992417251 0.4370919675017769 0.4370919675017769 0.4370919675017769 0.4358661241028572 0.4358661241028572 0.4358661241028572 -0.5878205363038246 
-0.5878205363038246 -0.5878205363038246 -0.5890551414415726 -0.5890551414415726 -0.5890551414415726 -0.3574564070781339 -0.3574564070781339 -0.3574564070781339 -0.3498038846793414 
-0.3498038846793414 -0.3498038846793414 -0.4998409485579406 -0.4998409485579406 -0.4998409485579406 -0.5003243206542265 -0.5003243206542265 -0.5003243206542265 -0.5704408492870177 
-0.5704408492870177 -0.5704408492870177 -0.5644640589307293 -0.5644640589307293 -0.5644640589307293 0.04684735298241027 0.04684735298241027 0.04684735298241027 0.0574427498203931 
0.0574427498203931 0.0574427498203931 0.5078932246174174 0.5078932246174174 0.5078932246174174 0.5045113191248616 0.5045113191248616 0.5045113191248616 -0.4819729087119728 
-0.4819729087119728 -0.4819729087119728 -0.4829709887865559 -0.4829709887865559 -0.4829709887865559 0.5263163067269561 0.5263163067269561 0.5263163067269561 0.5278065106294727 
0.5278065106294727 0.5278065106294727 0.2936375255882516 0.2936375255882516 0.2936375255882516 0.2372627032134112 0.2372627032134112 0.2372627032134112 0.4428796056920595 
0.4428796056920595 0.4428796056920595 0.4415880065251555 0.4415880065251555 0.4415880065251555 0.4222566694901247 0.4222566694901247 0.4222566694901247 0.4207385437932252 
0.4207385437932252 0.4207385437932252 -0.4817515354228026 -0.4817515354228026 -0.4817515354228026 0.172859610286714 0.172859610286714 0.172859610286714 0.1745289053821225 
0.1745289053821225 0.1745289053821225 -0.4265605960290678 -0.4265605960290678 -0.4265605960290678 -0.428428661547453 -0.428428661547453 -0.428428661547453 -0.434143725699898 
-0.434143725699898 -0.434143725699898 -0.4327136292912154 -0.4327136292912154 -0.4327136292912154 -0.2736559694710524 -0.2736559694710524 -0.2736559694710524 -0.2736406350295446 
-0.2736406350295446 -0.2736406350295446 0.2521341627927741 0.2521341627927741 0.2521341627927741 0.2540051140676441 0.2540051140676441 0.2540051140676441 0.2751163200162784 
0.2751163200162784 0.2751163200162784 0.2721594168342479 0.2721594168342479 0.2721594168342479 -0.2342657712714027 -0.2342657712714027 -0.2342657712714027 -0.2302821894214495 
-0.2302821894214495 -0.2302821894214495 -0.3746250553289879 -0.3746250553289879 -0.3746250553289879 -0.3581117441523168 -0.3581117441523168 -0.3581117441523168 0.1164899819222975 
0.1164899819222975 0.1164899819222975 0.115030125476769 0.115030125476769 0.115030125476769 -0.368331257436273 -0.368331257436273 -0.368331257436273 -0.3677274231993499 
-0.3677274231993499 -0.3677274231993499 0.5448307797152498 0.5448307797152498 0.5448307797152498 -0.09765917142849143 -0.09765917142849143 -0.09765917142849143 -0.06102128798703216 
-0.06102128798703216 -0.06102128798703216 0.3375698397838172 0.3375698397838172 0.3375698397838172 0.3371588913083826 0.3371588913083826 0.3371588913083826 -0.2731715674923123 
-0.2731715674923123 -0.2731715674923123 -0.2769278345826156 -0.2769278345826156 -0.2769278345826156 -0.1806536327372543 -0.1806536327372543 -0.1806536327372543 -0.178298959744408 
-0.178298959744408 -0.178298959744408 0.1015454232218546 0.1015454232218546 0.1015454232218546 0.1045528766949095 0.1045528766949095 0.1045528766949095 0.3326200195074724 
0.3326200195074724 0.3326200195074724 0.1776205026781309 0.1776205026781309 0.1776205026781309 0.186585530645456 0.186585530645456 0.186585530645456 0.1902838526494011 
0.1902838526494011 0.1902838526494011 0.1917902269592765 0.1917902269592765 0.1917902269592765 -0.3931803122448843 -0.3931803122448843 -0.3931803122448843 -0.3917948700193775 
-0.3917948700193775 -0.3917948700193775 -0.4330981952748241 -0.4330981952748241 -0.4330981952748241 -0.4349510560132701 -0.4349510560132701 -0.4349510560132701 -0.3334339745923718 
-0.3334339745923718 -0.3334339745923718 -0.3322058606463729 -0.3322058606463729 -0.3322058606463729 0.3880760162406751 0.3880760162406751 0.3880760162406751 0.3862928083165063 
0.3862928083165063 0.3862928083165063 -0.191784584472919 -0.191784584472919 -0.191784584472919 -0.1933702635153569 -0.1933702635153569 -0.1933702635153569 0.3383226128541256 
0.3383226128541256 0.3383226128541256 0.3370265582284768 0.3370265582284768 0.3370265582284768 0.3539543347229681 0.3539543347229681 0.3539543347229681 0.3336452613727287 
0.3336452613727287 0.3336452613727287 0.1873722508843855 0.1873722508843855 0.1873722508843855 0.1872802308517953 0.1872802308517953 0.1872802308517953 0.08742057878774787 
0.08742057878774787 0.08742057878774787 0.1037621983610664 0.1037621983610664 0.1037621983610664 -0.0190508542430954 -0.0190508542430954 -0.0190508542430954 -0.03878922730745399 
-0.03878922730745399 -0.03878922730745399 -0.1863945016607158 -0.1863945016607158 -0.1863945016607158 -0.1881450058984316 -0.1881450058984316 -0.1881450058984316 0.06224774551211892 
0.06224774551211892 0.06224774551211892 0.01647188433558157 0.01647188433558157 0.01647188433558157 -0.5335615277791015 -0.5335615277791015 -0.5335615277791015 -0.5225623371482608 
-0.5225623371482608 -0.5225623371482608 -0.05005483505335906 -0.05005483505335906 -0.05005483505335906 -0.3927800989558461 -0.3927800989558461 -0.3927800989558461 -0.3887408922966655 
-0.3887408922966655 -0.3887408922966655 -0.3146662941002786 -0.3146662941002786 -0.3146662941002786 -0.311299598581067 -0.311299598581067 -0.311299598581067 0.4168905192516628 
0.4168905192516628 0.4168905192516628 0.4138148953092556 0.4138148953092556 0.4138148953092556 0.3084728254423181 0.3084728254423181 0.3084728254423181 0.3343850413630151 
0.3343850413630151 0.3343850413630151 0.2266986078822143 0.2266986078822143 0.2266986078822143 0.1568866936095583 0.1568866936095583 0.1568866936095583 0.2865305917732872 
0.2865305917732872 0.2865305917732872 0.2808523377516249 0.2808523377516249 0.2808523377516249 -0.3128978720601714 -0.3128978720601714 -0.3128978720601714 -0.2566000838559264 
-0.2566000838559264 -0.2566000838559264 -0.29217688068474 -0.29217688068474 -0.29217688068474 -0.2687672548000575 -0.2687672548000575 -0.2687672548000575 -0.4591817442669964 
-0.4591817442669964 -0.4591817442669964 -0.4555935793715934 -0.4555935793715934 -0.4555935793715934 -0.3681599965141111 -0.3681599965141111 -0.3681599965141111 -0.3732955866992314 
-0.3732955866992314 -0.3732955866992314 -0.2136167844482693 -0.2136167844482693 -0.2136167844482693 -0.2029689567071636 -0.2029689567071636 -0.2029689567071636 -0.1721634443990191 
-0.1721634443990191 -0.1721634443990191 -0.16704539315572 -0.16704539315572 -0.16704539315572 0.3231871761804745 0.3231871761804745 0.3231871761804745 0.3456489823408467 
0.3456489823408467 0.3456489823408467 0.2513561729463697 0.2513561729463697 0.2513561729463697 0.2313195005983613 0.2313195005983613 0.2313195005983613 0.07336992818107103 
0.07336992818107103 0.07336992818107103 0.06976341419814228 0.06976341419814228 0.06976341419814228 -0.2850341897815085 -0.2850341897815085 -0.2850341897815085 -0.2836311474521749 
-0.2836311474521749 -0.2836311474521749 -0.3427952147068918 -0.3427952147068918 -0.3427952147068918 0.3193749045077003 0.3193749045077003 0.3193749045077003 0.3288585293414729 
0.3288585293414729 0.3288585293414729 0.4502327073997847 0.4502327073997847 0.4502327073997847 0.4859089113171635 0.4859089113171635 0.4859089113171635 -0.3903377458552393 
-0.3903377458552393 -0.3903377458552393 -0.3804325932055213 -0.3804325932055213 -0.3804325932055213 -0.1370809141989858 -0.1370809141989858 -0.1370809141989858 -0.1320741599324482 
-0.1320741599324482 -0.1320741599324482 0.2487154941294262 0.2487154941294262 0.2487154941294262 0.2528262910827686 0.2528262910827686 0.2528262910827686 -0.3098849155829509 
-0.3098849155829509 -0.3098849155829509 -0.3094193116671282 -0.3094193116671282 -0.3094193116671282 -0.2933322845110952 -0.2933322845110952 -0.2933322845110952 -0.2906005375252326 
-0.2906005375252326 -0.2906005375252326 0.3420297214979311 0.3420297214979311 0.3420297214979311 0.3426641470385886 0.3426641470385886 0.3426641470385886 -0.3927386664974233 
-0.3927386664974233 -0.3927386664974233 -0.3776302319636956 -0.3776302319636956 -0.3776302319636956 -0.01418644572502337 -0.01418644572502337 -0.01418644572502337 0.1275075258185262 
0.1275075258185262 0.1275075258185262 -0.4645908392209711 -0.4645908392209711 -0.4645908392209711 -0.4879253930843197 -0.4879253930843197 -0.4879253930843197 0.3414728987614351 
0.3414728987614351 0.3414728987614351 0.3328377840428073 0.3328377840428073 0.3328377840428073 0.2145625871309808 0.2145625871309808 0.2145625871309808 0.2053113942643353 
0.2053113942643353 0.2053113942643353 0.3878250407851678 0.3878250407851678 0.3878250407851678 0.3855933678215956 0.3855933678215956 0.3855933678215956 0.3207420039017014 
0.3207420039017014 0.3207420039017014 0.3316444954311931 0.3316444954311931 0.3316444954311931 -0.287488198838695 -0.287488198838695 -0.287488198838695 -0.1587138486610803 
-0.1587138486610803 -0.1587138486610803 -0.4377404613666886 -0.4377404613666886 -0.4377404613666886 -0.4458410048421341 -0.4458410048421341 -0.4458410048421341 0.4318225368692561 
0.4318225368692561 0.4318225368692561 0.3564070077234199 0.3564070077234199 0.3564070077234199 -0.3630759197602348 -0.3630759197602348 -0.3630759197602348 -0.3664537112264761 
-0.3664537112264761 -0.3664537112264761 -0.2192577707270459 -0.2192577707270459 -0.2192577707270459 -0.2310410429461316 -0.2310410429461316 -0.2310410429461316 0.4571602543600437 
0.4571602543600437 0.4571602543600437 0.4619532291003198 0.4619532291003198 0.4619532291003198 0.3982538520117973 0.3982538520117973 0.3982538520117973 0.3954723688394794 
0.3954723688394794 0.3954723688394794 -0.140609337420966 -0.140609337420966 -0.140609337420966 -0.1834570685333452 -0.1834570685333452 -0.1834570685333452 -0.3041409719096207 
-0.3041409719096207 -0.3041409719096207 -0.3081467209786177 -0.3081467209786177 -0.3081467209786177 0.3188407541888434 0.3188407541888434 0.3188407541888434 0.2236827345641928 
0.2236827345641928 0.2236827345641928 -0.3078313143025226 -0.3078313143025226 -0.3078313143025226 -0.2625775456031322 -0.2625775456031322 -0.2625775456031322 0.1375228141097146 
0.1375228141097146 0.1375228141097146 0.1405593728554534 0.1405593728554534 0.1405593728554534 -0.5813045991624444 -0.5813045991624444 -0.5813045991624444 -0.5821448639251123 
-0.5821448639251123 -0.5821448639251123 0.04354395733888448 0.04354395733888448 0.04354395733888448 0.04046012687338551 0.04046012687338551 0.04046012687338551 0.4745988512012274 
0.4745988512012274 0.4745988512012274 0.4726881644089324 0.4726881644089324 0.4726881644089324 0.1221735007040229 0.1221735007040229 0.1221735007040229 -0.07392355661948974 
-0.07392355661948974 -0.07392355661948974 0.1805453486929786 0.1805453486929786 0.1805453486929786 0.1780246126978747 0.1780246126978747 0.1780246126978747 -0.4894542748441538 
-0.4894542748441538 -0.4894542748441538 -0.5010054725014175 -0.5010054725014175 -0.5010054725014175 0.0540522681804121 0.0540522681804121 0.0540522681804121 -0.0483229492899991 
-0.0483229492899991 -0.0483229492899991 -0.5169320973858456 -0.5169320973858456 -0.5169320973858456 -0.5216407646628494 -0.5216407646628494 -0.5216407646628494 0.2625637103221085 
0.2625637103221085 0.2625637103221085 0.2314744518366909 0.2314744518366909 0.2314744518366909 0.3241898575800083 0.3241898575800083 0.3241898575800083 0.318295453795286 
0.318295453795286 0.318295453795286 -0.1724136111304985 -0.1724136111304985 -0.1724136111304985 -0.1764804097554724 -0.1764804097554724 -0.1764804097554724 -0.1966482700970396 
-0.1966482700970396 -0.1966482700970396 -0.1972553883285363 -0.1972553883285363 -0.1972553883285363 0.3940805335441978 0.3940805335441978 0.3940805335441978 0.3974600323895666 
0.3974600323895666 0.3974600323895666 0.1688116276337631 0.1688116276337631 0.1688116276337631 0.1649764302105106 0.1649764302105106 0.1649764302105106 0.3772407138140144 
0.3772407138140144 0.3772407138140144 0.3745847857560674 0.3745847857560674 0.3745847857560674 0.2913437027159467 0.2913437027159467 0.2913437027159467 0.2877240253131794 
0.2877240253131794 0.2877240253131794 0.3388085818527162 0.3388085818527162 0.3388085818527162 0.335538648400187 0.335538648400187 0.335538648400187 0.3338832745654294 
0.3338832745654294 0.3338832745654294 0.3355778424990019 0.3355778424990019 0.3355778424990019 -0.5616774971524341 -0.5616774971524341 -0.5616774971524341 -0.5423592138234359 
-0.5423592138234359 -0.5423592138234359 -0.5409780791916229 -0.5409780791916229 -0.5409780791916229 -0.176925918864467 -0.176925918864467 -0.176925918864467 -0.1715101225778593 
-0.1715101225778593 -0.1715101225778593 -0.1601638965320887 -0.1601638965320887 -0.1601638965320887 -0.3891507120580589 -0.3891507120580589 -0.3891507120580589 -0.3862526256856205 
-0.3862526256856205 -0.3862526256856205 -0.384577332195448 -0.384577332195448 -0.384577332195448 -0.2771807092798934 -0.2771807092798934 -0.2771807092798934 -0.2761762719806133 
-0.2761762719806133 -0.2761762719806133 -0.2042966211226672 -0.2042966211226672 -0.2042966211226672 -0.5411074646417041 -0.5411074646417041 -0.5411074646417041 -0.5406925346271132 
-0.5406925346271132 -0.5406925346271132 -0.5463972391507635 -0.5463972391507635 -0.5463972391507635 -0.3232543596514481 -0.3232543596514481 -0.3232543596514481 -0.3201849349412148 
-0.3201849349412148 -0.3201849349412148 -0.3181647718828645 -0.3181647718828645 -0.3181647718828645 0.4010237266841918 0.4010237266841918 0.4010237266841918 0.2122603305719427 
0.2122603305719427 0.2122603305719427 0.1990937751120541 0.1990937751120541 0.1990937751120541 0.1994659594783735 0.1994659594783735 0.1994659594783735 0.2395682855191699 
0.2395682855191699 0.2395682855191699 0.232626821701331 0.232626821701331 0.232626821701331 0.1807010458933324 0.1807010458933324 0.1807010458933324 0.2189898917973632 
0.2189898917973632 0.2189898917973632 0.2153630608669264 0.2153630608669264 0.2153630608669264 0.1326418547059879 0.1326418547059879 0.1326418547059879 -0.3062224826305402 
-0.3062224826305402 -0.3062224826305402 -0.3021098537079634 -0.3021098537079634 -0.3021098537079634 -0.2931821460319503 -0.2931821460319503 -0.2931821460319503 0.1720951548683327 
0.1720951548683327 0.1720951548683327 0.2250942764277779 0.2250942764277779 0.2250942764277779 0.2346880639570594 0.2346880639570594 0.2346880639570594 -0.3555410206596564 
-0.3555410206596564 -0.3555410206596564 -0.3927647547005791 -0.3927647547005791 -0.3927647547005791 -0.3426239140576696 -0.3426239140576696 -0.3426239140576696 0.3161870597764028 
0.3161870597764028 0.3161870597764028 0.3138064196848982 0.3138064196848982 0.3138064196848982 0.3127423497967653 0.3127423497967653 0.3127423497967653 -0.5006062948082206 
-0.5006062948082206 -0.5006062948082206 -0.4998861843041574 -0.4998861843041574 -0.4998861843041574 -0.5102696052021998 -0.5102696052021998 -0.5102696052021998 0.2254883027880189 
0.2254883027880189 0.2254883027880189 0.2244740783743378 0.2244740783743378 0.2244740783743378 0.2326026436548538 0.2326026436548538 0.2326026436548538 -0.2468545885394145 
-0.2468545885394145 -0.2468545885394145 -0.2853379641076543 -0.2853379641076543 -0.2853379641076543 -0.2959802148638432 -0.2959802148638432 -0.2959802148638432 -0.4516748804787516 
-0.4516748804787516 -0.4516748804787516 -0.4505966035099694 -0.4505966035099694 -0.4505966035099694 -0.4491533514601954 -0.4491533514601954 -0.4491533514601954 -0.2484620755887912 
-0.2484620755887912 -0.2484620755887912 -0.2475116818965752 -0.2475116818965752 -0.2475116818965752 -0.2490014581165257 -0.2490014581165257 -0.2490014581165257 0.3440900442505153 
0.3440900442505153 0.3440900442505153 0.3457736265903666 0.3457736265903666 0.3457736265903666 0.3471612971800236 0.3471612971800236 0.3471612971800236 0.4182792496352568 
0.4182792496352568 0.4182792496352568 0.4206294171127529 0.4206294171127529 0.4206294171127529 0.4207096106061943 0.4207096106061943 0.4207096106061943 0.4601073762097068 
0.4601073762097068 0.4601073762097068 0.4578731412716071 0.4578731412716071 0.4578731412716071 0.4520718663766543 0.4520718663766543 0.4520718663766543 -0.3564808557616821 
-0.3564808557616821 -0.3564808557616821 -0.3711426096923874 -0.3711426096923874 -0.3711426096923874 -0.3848749737599583 -0.3848749737599583 -0.3848749737599583 0.1463479627935855 
0.1463479627935855 0.1463479627935855 0.1476630482388603 0.1476630482388603 0.1476630482388603 0.1494220124592735 0.1494220124592735 0.1494220124592735 -0.4292633117895491 
-0.4292633117895491 -0.4292633117895491 -0.4330170283126493 -0.4330170283126493 -0.4330170283126493 -0.4347110167303804 -0.4347110167303804 -0.4347110167303804 -0.3179602000720612 
-0.3179602000720612 -0.3179602000720612 -0.3161807585814969 -0.3161807585814969 -0.3161807585814969 -0.3146034675689439 -0.3146034675689439 -0.3146034675689439 0.2842480272009942 
0.2842480272009942 0.2842480272009942 0.2809295325652592 0.2809295325652592 0.2809295325652592 0.2794593640669243 0.2794593640669243 0.2794593640669243 -0.3343451410575145 
-0.3343451410575145 -0.3343451410575145 -0.3339069613407898 -0.3339069613407898 -0.3339069613407898 -0.3326478357503919 -0.3326478357503919 -0.3326478357503919 -0.2732326283486477 
-0.2732326283486477 -0.2732326283486477 -0.2764525409389229 -0.2764525409389229 -0.2764525409389229 -0.2748454280642207 -0.2748454280642207 -0.2748454280642207 -0.4269817190242765 