Title = Triangle100
FileType = Solution
Variables = q
Zone T = Triangle100
ZoneType = FETriangle
Nodes = 99072
Elements = 33024
DataPacking = Block
StrandID = 10
SolutionTime = 0.9
0.1349286323085845 0.1349286323085845 0.1349286323085845 0.1314074572085031 0.1314074572085031 0.1314074572085031 0.1293415098567918 0.1293415098567918 0.1293415098567918 -0.07566617600746796 
-0.07566617600746796 -0.07566617600746796 -0.06568482383239767 -0.06568482383239767 -0.06568482383239767 0.23376597528029 0.23376597528029 0.23376597528029 0.2386275943294693 
0.2386275943294693 0.2386275943294693 -0.3091425686753114 -0.3091425686753114 -0.3091425686753114 -0.3118842162838622 -0.3118842162838622 -0.3118842162838622 0.6154119907499134 
0.6154119907499134 0.6154119907499134 0.6130921169433896 0.6130921169433896 0.6130921169433896 0.4473783623265011 0.4473783623265011 0.4473783623265011 0.4462031837844074 
0.4462031837844074 0.4462031837844074 -0.1587478708082535 -0.1587478708082535 -0.1587478708082535 -0.1615595855132204 -0.1615595855132204 -0.1615595855132204 0.107765756833185 
0.107765756833185 0.107765756833185 0.06871276646295099 0.06871276646295099 0.06871276646295099 0.43761718214061 0.43761718214061 0.43761718214061 0.4354762704266455 
0.4354762704266455 0.4354762704266455 0.2931080635048681 0.2931080635048681 0.2931080635048681 0.2839726363662792 0.2839726363662792 0.2839726363662792 0.2807405408552298 
0.2807405408552298 0.2807405408552298 0.5694608451217522 0.5694608451217522 0.5694608451217522 0.5668618210490297 0.5668618210490297 0.5668618210490297 -0.3013871215710391 
-0.3013871215710391 -0.3013871215710391 -0.3017191200997982 -0.3017191200997982 -0.3017191200997982 -0.3182962694277093 -0.3182962694277093 -0.3182962694277093 -0.3250568790385853 
-0.3250568790385853 -0.3250568790385853 -0.09319909290582812 -0.09319909290582812 -0.09319909290582812 -0.09474953368220053 -0.09474953368220053 -0.09474953368220053 -0.5278757837655413 
-0.5278757837655413 -0.5278757837655413 -0.5298530283741498 -0.5298530283741498 -0.5298530283741498 -0.5326455052020139 -0.5326455052020139 -0.5326455052020139 0.5862344922059355 
0.5862344922059355 0.5862344922059355 0.5836751078246986 0.5836751078246986 0.5836751078246986 0.5816897208688782 0.5816897208688782 0.5816897208688782 -0.2786094190073385 
-0.2786094190073385 -0.2786094190073385 -0.276242542442913 -0.276242542442913 -0.276242542442913 -0.2833463933575198 -0.2833463933575198 -0.2833463933575198 0.4380623387818852 
0.4380623387818852 0.4380623387818852 0.4410850385443383 0.4410850385443383 0.4410850385443383 0.4439074000167271 0.4439074000167271 0.4439074000167271 -0.3228704810518421 
-0.3228704810518421 -0.3228704810518421 -0.3223883497076007 -0.3223883497076007 -0.3223883497076007 -0.3323572300998884 -0.3323572300998884 -0.3323572300998884 0.05564862717954722 
0.05564862717954722 0.05564862717954722 0.05337000847323331 0.05337000847323331 0.05337000847323331 0.05076644380329055 0.05076644380329055 0.05076644380329055 0.4671275685949816 
0.4671275685949816 0.4671275685949816 0.4677729882582138 0.4677729882582138 0.4677729882582138 0.4969646573688856 0.4969646573688856 0.4969646573688856 0.6547612573118835 
0.6547612573118835 0.6547612573118835 0.6516851565668822 0.6516851565668822 0.6516851565668822 -0.3335078174369074 -0.3335078174369074 -0.3335078174369074 -0.3297264500427843 
-0.3297264500427843 -0.3297264500427843 -0.4658998050965916 -0.4658998050965916 -0.4658998050965916 -0.4642946075192647 -0.4642946075192647 -0.4642946075192647 0.04501094269478587 
0.04501094269478587 0.04501094269478587 0.04813666690604333 0.04813666690604333 0.04813666690604333 -0.3151309054279861 -0.3151309054279861 -0.3151309054279861 -0.3252596233807655 
-0.3252596233807655 -0.3252596233807655 0.1537775939496513 0.1537775939496513 0.1537775939496513 0.1528235072639446 0.1528235072639446 0.1528235072639446 -0.23755527198122 
-0.23755527198122 -0.23755527198122 -0.2575897133085733 -0.2575897133085733 -0.2575897133085733 0.1833303850386883 0.1833303850386883 0.1833303850386883 0.170483085029558 
0.170483085029558 0.170483085029558 -0.1512322974329178 -0.1512322974329178 -0.1512322974329178 -0.1539153353380053 -0.1539153353380053 -0.1539153353380053 -0.3214933627533788 
-0.3214933627533788 -0.3214933627533788 -0.316901269458305 -0.316901269458305 -0.316901269458305 0.3186771983571329 0.3186771983571329 0.3186771983571329 0.3161755105060021 
0.3161755105060021 0.3161755105060021 -0.134040690648831 -0.134040690648831 -0.134040690648831 -0.1387119524422015 -0.1387119524422015 -0.1387119524422015 -0.3441689811637286 
-0.3441689811637286 -0.3441689811637286 -0.3724160310536068 -0.3724160310536068 -0.3724160310536068 -0.2572654829437181 -0.2572654829437181 -0.2572654829437181 -0.2576810065047619 
-0.2576810065047619 -0.2576810065047619 -0.4825548043983632 -0.4825548043983632 -0.4825548043983632 -0.4832853010737655 -0.4832853010737655 -0.4832853010737655 -0.02984012512220175 
-0.02984012512220175 -0.02984012512220175 -0.02768614694494017 -0.02768614694494017 -0.02768614694494017 0.2903719807364365 0.2903719807364365 0.2903719807364365 0.2862024105916364 
0.2862024105916364 0.2862024105916364 -0.2943506741364906 -0.2943506741364906 -0.2943506741364906 -0.2996644190010865 -0.2996644190010865 -0.2996644190010865 0.1654242766152206 
0.1654242766152206 0.1654242766152206 0.1629314837095353 0.1629314837095353 0.1629314837095353 -0.06013188477833978 -0.06013188477833978 -0.06013188477833978 0.1782300696682293 
0.1782300696682293 0.1782300696682293 0.5405138178643273 0.5405138178643273 0.5405138178643273 0.6273075582310077 0.6273075582310077 0.6273075582310077 0.6225153324885163 
0.6225153324885163 0.6225153324885163 0.4422691589357267 0.4422691589357267 0.4422691589357267 0.4366605236975082 0.4366605236975082 0.4366605236975082 -0.0885364225826696 
-0.0885364225826696 -0.0885364225826696 -0.09702660465306012 -0.09702660465306012 -0.09702660465306012 0.6594800574073261 0.6594800574073261 0.6594800574073261 0.6540951338204181 
0.6540951338204181 0.6540951338204181 -0.1723463570346966 -0.1723463570346966 -0.1723463570346966 -0.1671842352791554 -0.1671842352791554 -0.1671842352791554 -0.2878049691259138 
-0.2878049691259138 -0.2878049691259138 -0.2909005938087942 -0.2909005938087942 -0.2909005938087942 0.6545398600083863 0.6545398600083863 0.6545398600083863 0.6508061892143863 
0.6508061892143863 0.6508061892143863 0.1451114655094081 0.1451114655094081 0.1451114655094081 0.139094058086075 0.139094058086075 0.139094058086075 0.2367921431071546 
0.2367921431071546 0.2367921431071546 0.1514232990070736 0.1514232990070736 0.1514232990070736 -0.3167065381793244 -0.3167065381793244 -0.3167065381793244 -0.3067018020017963 
-0.3067018020017963 -0.3067018020017963 0.1632777219959669 0.1632777219959669 0.1632777219959669 0.2963126273367918 0.2963126273367918 0.2963126273367918 -0.3032486628006744 
-0.3032486628006744 -0.3032486628006744 0.01059827913134227 0.01059827913134227 0.01059827913134227 -0.4955939242724901 -0.4955939242724901 -0.4955939242724901 -0.4857029317549891 
-0.4857029317549891 -0.4857029317549891 -0.3126416408059823 -0.3126416408059823 -0.3126416408059823 -0.3189013096462827 -0.3189013096462827 -0.3189013096462827 -0.27753717748552 
-0.27753717748552 -0.27753717748552 0.02596798998661784 0.02596798998661784 0.02596798998661784 0.5064624448656927 0.5064624448656927 0.5064624448656927 0.4769727274348611 
0.4769727274348611 0.4769727274348611 0.2355180966654453 0.2355180966654453 0.2355180966654453 0.2369767721149918 0.2369767721149918 0.2369767721149918 0.2394229531089379 
0.2394229531089379 0.2394229531089379 -0.2641086979854208 -0.2641086979854208 -0.2641086979854208 -0.268436079442594 -0.268436079442594 -0.268436079442594 -0.2641431135507378 
-0.2641431135507378 -0.2641431135507378 -0.277033995849662 -0.277033995849662 -0.277033995849662 -0.2737172713903014 -0.2737172713903014 -0.2737172713903014 -0.2717330605652233 
-0.2717330605652233 -0.2717330605652233 0.07316599917318922 0.07316599917318922 0.07316599917318922 0.07066279872563494 0.07066279872563494 0.07066279872563494 0.06836934641213349 
0.06836934641213349 0.06836934641213349 -0.6032322671639161 -0.6032322671639161 -0.6032322671639161 -0.6066765610918501 -0.6066765610918501 -0.6066765610918501 -0.6092068888882082 
-0.6092068888882082 -0.6092068888882082 0.4328398370464819 0.4328398370464819 0.4328398370464819 0.4338292988195903 0.4338292988195903 0.4338292988195903 0.1217672401586943 
0.1217672401586943 0.1217672401586943 0.1194811156706291 0.1194811156706291 0.1194811156706291 0.1155191497763973 0.1155191497763973 0.1155191497763973 -0.1727340712649088 
-0.1727340712649088 -0.1727340712649088 -0.1783958938899514 -0.1783958938899514 -0.1783958938899514 -0.1769785478043832 -0.1769785478043832 -0.1769785478043832 -0.2287809363178548 
-0.2287809363178548 -0.2287809363178548 -0.224083761814251 -0.224083761814251 -0.224083761814251 -0.2219861649609954 -0.2219861649609954 -0.2219861649609954 -0.01912728106768019 
-0.01912728106768019 -0.01912728106768019 -0.0242394865775449 -0.0242394865775449 -0.0242394865775449 -0.02640308698806676 -0.02640308698806676 -0.02640308698806676 -0.3345907508703431 
-0.3345907508703431 -0.3345907508703431 -0.3315769892136168 -0.3315769892136168 -0.3315769892136168 -0.3334905719987449 -0.3334905719987449 -0.3334905719987449 0.1454967819575503 
0.1454967819575503 0.1454967819575503 0.1413087918260983 0.1413087918260983 0.1413087918260983 0.1391360339052961 0.1391360339052961 0.1391360339052961 0.3211259269369083 
0.3211259269369083 0.3211259269369083 0.321199219012072 0.321199219012072 0.321199219012072 0.3190069015405078 0.3190069015405078 0.3190069015405078 0.2409326180404922 
0.2409326180404922 0.2409326180404922 0.2432362773632869 0.2432362773632869 0.2432362773632869 -0.3290083978430398 -0.3290083978430398 -0.3290083978430398 -0.3265111908814702 
-0.3265111908814702 -0.3265111908814702 -0.3246924314997518 -0.3246924314997518 -0.3246924314997518 -0.1473745330192804 -0.1473745330192804 -0.1473745330192804 -0.1423255394014993 
-0.1423255394014993 -0.1423255394014993 0.2550158551081818 0.2550158551081818 0.2550158551081818 0.2520982093281377 0.2520982093281377 0.2520982093281377 0.2177952087231659 
0.2177952087231659 0.2177952087231659 0.2215040271743179 0.2215040271743179 0.2215040271743179 -0.1837988423954533 -0.1837988423954533 -0.1837988423954533 -0.1862859873191089 
-0.1862859873191089 -0.1862859873191089 0.5760905694656449 0.5760905694656449 0.5760905694656449 0.5727556136414094 0.5727556136414094 0.5727556136414094 0.2092668011526569 
0.2092668011526569 0.2092668011526569 0.2142566310854381 0.2142566310854381 0.2142566310854381 -0.5111826883619717 -0.5111826883619717 -0.5111826883619717 -0.5087566365274252 
-0.5087566365274252 -0.5087566365274252 0.6291314115127995 0.6291314115127995 0.6291314115127995 0.6266263096663648 0.6266263096663648 0.6266263096663648 -0.4176241971858108 
-0.4176241971858108 -0.4176241971858108 -0.4166410402827226 -0.4166410402827226 -0.4166410402827226 0.006302486278755522 0.006302486278755522 0.006302486278755522 0.2365360920226026 
0.2365360920226026 0.2365360920226026 -0.3717965201594154 -0.3717965201594154 -0.3717965201594154 -0.3700055373853395 -0.3700055373853395 -0.3700055373853395 0.1785847598101591 
0.1785847598101591 0.1785847598101591 0.176024543822789 0.176024543822789 0.176024543822789 -0.1727661808747032 -0.1727661808747032 -0.1727661808747032 -0.1595115423466201 
-0.1595115423466201 -0.1595115423466201 -0.08517231160565993 -0.08517231160565993 -0.08517231160565993 -0.3378277695197003 -0.3378277695197003 -0.3378277695197003 0.6640610080435659 
0.6640610080435659 0.6640610080435659 0.6615669703750923 0.6615669703750923 0.6615669703750923 -0.5733381803070972 -0.5733381803070972 -0.5733381803070972 -0.5752825178273701 
-0.5752825178273701 -0.5752825178273701 -0.5415607953800857 -0.5415607953800857 -0.5415607953800857 -0.5593745329026395 -0.5593745329026395 -0.5593745329026395 0.1696793240563701 
0.1696793240563701 0.1696793240563701 0.1663933771514415 0.1663933771514415 0.1663933771514415 -0.4639531222663278 -0.4639531222663278 -0.4639531222663278 -0.4863155357612308 
-0.4863155357612308 -0.4863155357612308 -0.3506627613314044 -0.3506627613314044 -0.3506627613314044 -0.3568552151839127 -0.3568552151839127 -0.3568552151839127 0.172434892277435 
0.172434892277435 0.172434892277435 0.1739460729626526 0.1739460729626526 0.1739460729626526 -0.4924481533206966 -0.4924481533206966 -0.4924481533206966 -0.4907176888974847 
-0.4907176888974847 -0.4907176888974847 0.6032970349714925 0.6032970349714925 0.6032970349714925 0.6145661343134009 0.6145661343134009 0.6145661343134009 -0.4576480625927384 
-0.4576480625927384 -0.4576480625927384 -0.4604791269490366 -0.4604791269490366 -0.4604791269490366 -0.163662500400141 -0.163662500400141 -0.163662500400141 -0.1015340656501604 
-0.1015340656501604 -0.1015340656501604 -0.3142988967302821 -0.3142988967302821 -0.3142988967302821 -0.3150370297175937 -0.3150370297175937 -0.3150370297175937 -0.4297654461609002 
-0.4297654461609002 -0.4297654461609002 -0.4280897420683352 -0.4280897420683352 -0.4280897420683352 -0.02049983358148689 -0.02049983358148689 -0.02049983358148689 -0.02291406639547273 
-0.02291406639547273 -0.02291406639547273 0.3384350928552032 0.3384350928552032 0.3384350928552032 0.3399355889075718 0.3399355889075718 0.3399355889075718 -0.2867042181193978 
-0.2867042181193978 -0.2867042181193978 -0.2888041639271384 -0.2888041639271384 -0.2888041639271384 0.3556893439911223 0.3556893439911223 0.3556893439911223 0.3577448280400496 
0.3577448280400496 0.3577448280400496 0.30804780074803 0.30804780074803 0.30804780074803 0.3050135157751176 0.3050135157751176 0.3050135157751176 0.2344138009933437 
0.2344138009933437 0.2344138009933437 0.2321451897344238 0.2321451897344238 0.2321451897344238 0.6595544088650477 0.6595544088650477 0.6595544088650477 0.6572174856165306 
0.6572174856165306 0.6572174856165306 -0.2860488753050933 -0.2860488753050933 -0.2860488753050933 0.2695518712866919 0.2695518712866919 0.2695518712866919 0.2721803674980503 
0.2721803674980503 0.2721803674980503 -0.6544849359108159 -0.6544849359108159 -0.6544849359108159 -0.6659719338836239 -0.6659719338836239 -0.6659719338836239 -0.477780628658368 
-0.477780628658368 -0.477780628658368 -0.5111234438802946 -0.5111234438802946 -0.5111234438802946 -0.425509862728525 -0.425509862728525 -0.425509862728525 -0.4239231774358794 
-0.4239231774358794 -0.4239231774358794 0.3934668748807417 0.3934668748807417 0.3934668748807417 0.3963729566551533 0.3963729566551533 0.3963729566551533 0.3966681063917548 
0.3966681063917548 0.3966681063917548 0.399216689691358 0.399216689691358 0.399216689691358 -0.3652308915405299 -0.3652308915405299 -0.3652308915405299 -0.3576812216020696 
-0.3576812216020696 -0.3576812216020696 -0.1392824432522017 -0.1392824432522017 -0.1392824432522017 -0.135311569822243 -0.135311569822243 -0.135311569822243 0.157275491053039 
0.157275491053039 0.157275491053039 0.159448777789804 0.159448777789804 0.159448777789804 -0.127468261121244 -0.127468261121244 -0.127468261121244 -0.1250638185501999 
-0.1250638185501999 -0.1250638185501999 0.4314216670641076 0.4314216670641076 0.4314216670641076 0.03599326234394732 0.03599326234394732 0.03599326234394732 0.03333649449504258 
0.03333649449504258 0.03333649449504258 0.5230965207928676 0.5230965207928676 0.5230965207928676 0.5257624065710255 0.5257624065710255 0.5257624065710255 -0.3101051963571069 
-0.3101051963571069 -0.3101051963571069 -0.3069176828499474 -0.3069176828499474 -0.3069176828499474 -0.2818937892926537 -0.2818937892926537 -0.2818937892926537 -0.2782150906481221 
-0.2782150906481221 -0.2782150906481221 0.1582092628942951 0.1582092628942951 0.1582092628942951 0.1629087701779867 0.1629087701779867 0.1629087701779867 0.5117636248372263 
0.5117636248372263 0.5117636248372263 0.2762281422241143 0.2762281422241143 0.2762281422241143 0.2811310556232167 0.2811310556232167 0.2811310556232167 0.2801881165585625 
0.2801881165585625 0.2801881165585625 0.2809805869880555 0.2809805869880555 0.2809805869880555 -0.3015530690310315 -0.3015530690310315 -0.3015530690310315 -0.3496039254969837 
-0.3496039254969837 -0.3496039254969837 -0.2134180433498061 -0.2134180433498061 -0.2134180433498061 -0.2149990146228451 -0.2149990146228451 -0.2149990146228451 -0.51553885166512 
-0.51553885166512 -0.51553885166512 -0.5133450334896326 -0.5133450334896326 -0.5133450334896326 0.6065807549257478 0.6065807549257478 0.6065807549257478 0.6038059658364596 
0.6038059658364596 0.6038059658364596 -0.2990719686739112 -0.2990719686739112 -0.2990719686739112 -0.3015935745830652 -0.3015935745830652 -0.3015935745830652 0.4896221182420734 
0.4896221182420734 0.4896221182420734 0.4898776231445641 0.4898776231445641 0.4898776231445641 0.1277260696604716 0.1277260696604716 0.1277260696604716 0.1205087544236586 
0.1205087544236586 0.1205087544236586 0.2834622913227968 0.2834622913227968 0.2834622913227968 0.2809972332079572 0.2809972332079572 0.2809972332079572 0.0454407963250785 
0.0454407963250785 0.0454407963250785 0.04315708791786552 0.04315708791786552 0.04315708791786552 -0.1061468917826186 -0.1061468917826186 -0.1061468917826186 -0.1095598917936146 
-0.1095598917936146 -0.1095598917936146 -0.2923219540525846 -0.2923219540525846 -0.2923219540525846 -0.2948510054651713 -0.2948510054651713 -0.2948510054651713 -0.02031631882015581 
-0.02031631882015581 -0.02031631882015581 -0.0209174894524103 -0.0209174894524103 -0.0209174894524103 -0.3779814694492601 -0.3779814694492601 -0.3779814694492601 -0.4437120075152653 
-0.4437120075152653 -0.4437120075152653 -0.1054141921809523 -0.1054141921809523 -0.1054141921809523 -0.6112268710260189 -0.6112268710260189 -0.6112268710260189 -0.6049959415084812 
-0.6049959415084812 -0.6049959415084812 -0.4872310160984259 -0.4872310160984259 -0.4872310160984259 -0.4827101172768598 -0.4827101172768598 -0.4827101172768598 0.6511833690165151 
0.6511833690165151 0.6511833690165151 0.6464728368377179 0.6464728368377179 0.6464728368377179 0.4317880484239208 0.4317880484239208 0.4317880484239208 0.4275594578355845 
0.4275594578355845 0.4275594578355845 0.1807695934903464 0.1807695934903464 0.1807695934903464 0.1743373190342391 0.1743373190342391 0.1743373190342391 0.4467040841758292 
0.4467040841758292 0.4467040841758292 0.436861908363215 0.436861908363215 0.436861908363215 -0.1100924777188376 -0.1100924777188376 -0.1100924777188376 -0.1048658135655885 
-0.1048658135655885 -0.1048658135655885 -0.3230436639723471 -0.3230436639723471 -0.3230436639723471 -0.3270724027361892 -0.3270724027361892 -0.3270724027361892 -0.331400926239608 
-0.331400926239608 -0.331400926239608 -0.4998544208844771 -0.4998544208844771 -0.4998544208844771 -0.2108775522865816 -0.2108775522865816 -0.2108775522865816 -0.2927970137065398 
-0.2927970137065398 -0.2927970137065398 -0.3313194140637498 -0.3313194140637498 -0.3313194140637498 -0.2993944977762731 -0.2993944977762731 -0.2993944977762731 -0.2703274640790042 
-0.2703274640790042 -0.2703274640790042 -0.2668157675271081 -0.2668157675271081 -0.2668157675271081 0.08894616111365683 0.08894616111365683 0.08894616111365683 0.09526227717287056 
0.09526227717287056 0.09526227717287056 0.3471421809619324 0.3471421809619324 0.3471421809619324 0.3472559106939616 0.3472559106939616 0.3472559106939616 0.1141365846671314 
0.1141365846671314 0.1141365846671314 0.1084886090121939 0.1084886090121939 0.1084886090121939 -0.1508845076835226 -0.1508845076835226 -0.1508845076835226 -0.0006831426045562175 
-0.0006831426045562175 -0.0006831426045562175 -0.53590515729179 -0.53590515729179 -0.53590515729179 0.4957522879252844 0.4957522879252844 0.4957522879252844 0.492829152682849 
0.492829152682849 0.492829152682849 0.4257734332739594 0.4257734332739594 0.4257734332739594 0.4317972365441427 0.4317972365441427 0.4317972365441427 -0.1534972199958955 
-0.1534972199958955 -0.1534972199958955 -0.1486657383716879 -0.1486657383716879 -0.1486657383716879 -0.2145050863439581 -0.2145050863439581 -0.2145050863439581 -0.2115129757088893 
-0.2115129757088893 -0.2115129757088893 0.252865137864613 0.252865137864613 0.252865137864613 0.3429905857977407 0.3429905857977407 0.3429905857977407 -0.4818434689373273 
-0.4818434689373273 -0.4818434689373273 -0.482422884212558 -0.482422884212558 -0.482422884212558 -0.456946923923258 -0.456946923923258 -0.456946923923258 -0.4487955731301532 
-0.4487955731301532 -0.4487955731301532 0.5346782092256195 0.5346782092256195 0.5346782092256195 0.5356658973714662 0.5356658973714662 0.5356658973714662 -0.2194939759594493 
-0.2194939759594493 -0.2194939759594493 -0.2124402978181466 -0.2124402978181466 -0.2124402978181466 -0.09104459113798459 -0.09104459113798459 -0.09104459113798459 -0.08915852451022617 
-0.08915852451022617 -0.08915852451022617 -0.3487551587889119 -0.3487551587889119 -0.3487551587889119 -0.3535383044650321 -0.3535383044650321 -0.3535383044650321 0.2838555202009645 
0.2838555202009645 0.2838555202009645 0.290075592733031 0.290075592733031 0.290075592733031 0.3226592725518759 0.3226592725518759 0.3226592725518759 0.3147603205592928 
0.3147603205592928 0.3147603205592928 0.6062165537539781 0.6062165537539781 0.6062165537539781 0.6027871189943159 0.6027871189943159 0.6027871189943159 0.4843385620583032 
0.4843385620583032 0.4843385620583032 0.4897584618392224 0.4897584618392224 0.4897584618392224 -0.1558916038859722 -0.1558916038859722 -0.1558916038859722 -0.1477367654897429 
-0.1477367654897429 -0.1477367654897429 -0.2287867685147116 -0.2287867685147116 -0.2287867685147116 -0.2329932424317392 -0.2329932424317392 -0.2329932424317392 0.4825535358567159 
0.4825535358567159 0.4825535358567159 0.4829156675687463 0.4829156675687463 0.4829156675687463 -0.4686976064727169 -0.4686976064727169 -0.4686976064727169 -0.4566565827878329 
-0.4566565827878329 -0.4566565827878329 -0.3235786434357806 -0.3235786434357806 -0.3235786434357806 -0.32964320049448 -0.32964320049448 -0.32964320049448 0.2572190791897937 
0.2572190791897937 0.2572190791897937 0.2632721230922104 0.2632721230922104 0.2632721230922104 0.6224678508260914 0.6224678508260914 0.6224678508260914 0.6181553475840798 
0.6181553475840798 0.6181553475840798 -0.2104885528125783 -0.2104885528125783 -0.2104885528125783 -0.2117090523651122 -0.2117090523651122 -0.2117090523651122 -0.3977441271159045 
-0.3977441271159045 -0.3977441271159045 -0.3863070223979148 -0.3863070223979148 -0.3863070223979148 0.133439333320672 0.133439333320672 0.133439333320672 0.1311707465318417 
0.1311707465318417 0.1311707465318417 -0.3227710451613195 -0.3227710451613195 -0.3227710451613195 -0.3151315869202742 -0.3151315869202742 -0.3151315869202742 0.2143380827657937 
0.2143380827657937 0.2143380827657937 0.2191390968800699 0.2191390968800699 0.2191390968800699 -0.4460469391179398 -0.4460469391179398 -0.4460469391179398 -0.4452772456299626 
-0.4452772456299626 -0.4452772456299626 0.06740035692864589 0.06740035692864589 0.06740035692864589 0.06258049798675852 0.06258049798675852 0.06258049798675852 0.2750521438764396 
0.2750521438764396 0.2750521438764396 0.2729906353387291 0.2729906353387291 0.2729906353387291 -0.05724850726027398 -0.05724850726027398 -0.05724850726027398 -0.1668943691330436 
-0.1668943691330436 -0.1668943691330436 -0.05173231791627601 -0.05173231791627601 -0.05173231791627601 0.144300188792742 0.144300188792742 0.144300188792742 -0.3351284844833436 
-0.3351284844833436 -0.3351284844833436 -0.3334479525386342 -0.3334479525386342 -0.3334479525386342 -0.1076416408761862 -0.1076416408761862 -0.1076416408761862 -0.1167308073554943 
-0.1167308073554943 -0.1167308073554943 -0.354736958855765 -0.354736958855765 -0.354736958855765 -0.3528671215484359 -0.3528671215484359 -0.3528671215484359 0.3380953591721554 
0.3380953591721554 0.3380953591721554 0.3295192865374216 0.3295192865374216 0.3295192865374216 0.4709526547390864 0.4709526547390864 0.4709526547390864 0.3919427491469727 
0.3919427491469727 0.3919427491469727 -0.2690240768057507 -0.2690240768057507 -0.2690240768057507 -0.2753465627632774 -0.2753465627632774 -0.2753465627632774 -0.2969539657332648 
-0.2969539657332648 -0.2969539657332648 -0.2909645989230779 -0.2909645989230779 -0.2909645989230779 0.6152099274225515 0.6152099274225515 0.6152099274225515 0.6204309142575151 
0.6204309142575151 0.6204309142575151 0.2625561810480856 0.2625561810480856 0.2625561810480856 0.2573054196254996 0.2573054196254996 0.2573054196254996 0.5896502758983867 
0.5896502758983867 0.5896502758983867 0.5855753389166445 0.5855753389166445 0.5855753389166445 0.4547456720582109 0.4547456720582109 0.4547456720582109 0.4471434873713185 
0.4471434873713185 0.4471434873713185 0.4551182555291716 0.4551182555291716 0.4551182555291716 0.4055002958824896 0.4055002958824896 0.4055002958824896 0.3347389845604392 
0.3347389845604392 0.3347389845604392 0.3159628624629702 0.3159628624629702 0.3159628624629702 -0.432821841077407 -0.432821841077407 -0.432821841077407 -0.4350368901137461 
-0.4350368901137461 -0.4350368901137461 -0.4379400984398653 -0.4379400984398653 -0.4379400984398653 -0.2789888868807904 -0.2789888868807904 -0.2789888868807904 -0.2713960315841912 
-0.2713960315841912 -0.2713960315841912 -0.253450649894831 -0.253450649894831 -0.253450649894831 -0.2712445034872267 -0.2712445034872267 -0.2712445034872267 -0.2466046745076859 
-0.2466046745076859 -0.2466046745076859 -0.1696162883628145 -0.1696162883628145 -0.1696162883628145 -0.05782950206398083 -0.05782950206398083 -0.05782950206398083 -0.06042654233261869 
-0.06042654233261869 -0.06042654233261869 -0.0567050595259775 -0.0567050595259775 -0.0567050595259775 -0.4064167624147291 -0.4064167624147291 -0.4064167624147291 -0.4041655512524497 
-0.4041655512524497 -0.4041655512524497 -0.4030061532290752 -0.4030061532290752 -0.4030061532290752 -0.5050322902936272 -0.5050322902936272 -0.5050322902936272 -0.499806787567642 
-0.499806787567642 -0.499806787567642 -0.4969729156145559 -0.4969729156145559 -0.4969729156145559 0.6259358526583799 0.6259358526583799 0.6259358526583799 -0.04983340075151355 
-0.04983340075151355 -0.04983340075151355 -0.05331335898815802 -0.05331335898815802 -0.05331335898815802 -0.05597631512485563 -0.05597631512485563 -0.05597631512485563 0.2117910637872755 
0.2117910637872755 0.2117910637872755 0.2146925191311711 0.2146925191311711 0.2146925191311711 0.2140205749898945 0.2140205749898945 0.2140205749898945 0.02023085559681747 
0.02023085559681747 0.02023085559681747 0.01529535359764487 0.01529535359764487 0.01529535359764487 -0.09111380405053265 -0.09111380405053265 -0.09111380405053265 -0.4002524341217935 
-0.4002524341217935 -0.4002524341217935 -0.3875286678551922 -0.3875286678551922 -0.3875286678551922 -0.06284240894417945 -0.06284240894417945 -0.06284240894417945 -0.0569043741596614 
-0.0569043741596614 -0.0569043741596614 -0.05110506017517698 -0.05110506017517698 -0.05110506017517698 -0.04768150666397335 -0.04768150666397335 -0.04768150666397335 -0.2060000178717489 
-0.2060000178717489 -0.2060000178717489 -0.2164991358174252 -0.2164991358174252 -0.2164991358174252 -0.2148252974835307 -0.2148252974835307 -0.2148252974835307 0.4931116985533682 
0.4931116985533682 0.4931116985533682 0.4894944914325916 0.4894944914325916 0.4894944914325916 0.4873076082221744 0.4873076082221744 0.4873076082221744 -0.3472078673318591 
-0.3472078673318591 -0.3472078673318591 -0.3448014787705027 -0.3448014787705027 -0.3448014787705027 -0.3449146121919399 -0.3449146121919399 -0.3449146121919399 -0.0230628975661754 
-0.0230628975661754 -0.0230628975661754 0.01742137153750793 0.01742137153750793 0.01742137153750793 0.1327191967793302 0.1327191967793302 0.1327191967793302 0.01043015670897576 
0.01043015670897576 0.01043015670897576 -0.0001497056962636612 -0.0001497056962636612 -0.0001497056962636612 -0.2581461675543143 -0.2581461675543143 -0.2581461675543143 -0.2399261593716906 
-0.2399261593716906 -0.2399261593716906 -0.240367896381737 -0.240367896381737 -0.240367896381737 -0.242270116237105 -0.242270116237105 -0.242270116237105 -0.3866162383955046 
-0.3866162383955046 -0.3866162383955046 -0.382254510424144 -0.382254510424144 -0.382254510424144 -0.3842347641350712 -0.3842347641350712 -0.3842347641350712 0.5379232740312301 
0.5379232740312301 0.5379232740312301 0.5405530554538082 0.5405530554538082 0.5405530554538082 0.5427443385300472 0.5427443385300472 0.5427443385300472 0.6524095120782385 
0.6524095120782385 0.6524095120782385 0.6563704415763931 0.6563704415763931 0.6563704415763931 0.6569413771609722 0.6569413771609722 0.6569413771609722 0.3750119151206951 
0.3750119151206951 0.3750119151206951 0.3775030034537379 0.3775030034537379 0.3775030034537379 0.3801237030858441 0.3801237030858441 0.3801237030858441 -0.4783002347109436 
-0.4783002347109436 -0.4783002347109436 -0.475767039638064 -0.475767039638064 -0.475767039638064 -0.4737116625887513 -0.4737116625887513 -0.4737116625887513 0.2283726914067023 
0.2283726914067023 0.2283726914067023 0.2304044953329274 0.2304044953329274 0.2304044953329274 0.2331248745400754 0.2331248745400754 0.2331248745400754 -0.2057860543930129 
-0.2057860543930129 -0.2057860543930129 -0.2110915767653877 -0.2110915767653877 -0.2110915767653877 -0.2134005924457967 -0.2134005924457967 -0.2134005924457967 -0.4968150354066026 
-0.4968150354066026 -0.4968150354066026 -0.4940797702615748 -0.4940797702615748 -0.4940797702615748 -0.4915956330581586 -0.4915956330581586 -0.4915956330581586 0.4413745948577034 
0.4413745948577034 0.4413745948577034 0.4338826167164577 0.4338826167164577 0.4338826167164577 0.4318939458414092 0.4318939458414092 0.4318939458414092 -0.5224372014553857 
-0.5224372014553857 -0.5224372014553857 -0.5214890139926911 -0.5214890139926911 -0.5214890139926911 -0.5191211675745842 -0.5191211675745842 -0.5191211675745842 -0.4191447853698566 