Title = Triangle100
FileType = Solution
Variables = q
Zone T = Triangle100
ZoneType = FETriangle
Nodes = 99072
Elements = 33024
DataPacking = Block
StrandID = 9
SolutionTime = 0.8
0.1487829642982668 0.1487829642982668 0.1487829642982668 0.1448979344816897 0.1448979344816897 0.1448979344816897 0.1426170151186768 0.1426170151186768 0.1426170151186768 -0.08361971260329232 
-0.08361971260329232 -0.08361971260329232 -0.07675946367418265 -0.07675946367418265 -0.07675946367418265 0.2579038734394253 0.2579038734394253 0.2579038734394253 0.2632718057043349 
0.2632718057043349 0.2632718057043349 -0.3411342628969249 -0.3411342628969249 -0.3411342628969249 -0.3441620118550618 -0.3441620118550618 -0.3441620118550618 0.67834247576672 
0.67834247576672 0.67834247576672 0.6758147534978536 0.6758147534978536 0.6758147534978536 0.4937578376927868 0.4937578376927868 0.4937578376927868 0.4924758384833212 
0.4924758384833212 0.4924758384833212 -0.1750463941133195 -0.1750463941133195 -0.1750463941133195 -0.1781496878574713 -0.1781496878574713 -0.1781496878574713 0.1261416243816688 
0.1261416243816688 0.1261416243816688 0.1097794355174213 0.1097794355174213 0.1097794355174213 0.482791574205902 0.482791574205902 0.482791574205902 0.480458918360782 
0.480458918360782 0.480458918360782 0.323437410775114 0.323437410775114 0.323437410775114 0.3133432481998962 0.3133432481998962 0.3133432481998962 0.3097777253813456 
0.3097777253813456 0.3097777253813456 0.6278413659229598 0.6278413659229598 0.6278413659229598 0.6250504222627653 0.6250504222627653 0.6250504222627653 -0.3325206935025109 
-0.3325206935025109 -0.3325206935025109 -0.3328527461276206 -0.3328527461276206 -0.3328527461276206 -0.3512467773707323 -0.3512467773707323 -0.3512467773707323 -0.358715333577709 
-0.358715333577709 -0.358715333577709 -0.106264077682338 -0.106264077682338 -0.106264077682338 -0.1043465068254689 -0.1043465068254689 -0.1043465068254689 -0.5824496348042906 
-0.5824496348042906 -0.5824496348042906 -0.584615742717282 -0.584615742717282 -0.584615742717282 -0.5876837706382696 -0.5876837706382696 -0.5876837706382696 0.646510752484993 
0.646510752484993 0.646510752484993 0.6437099305763818 0.6437099305763818 0.6437099305763818 0.641536721291324 0.641536721291324 0.641536721291324 -0.3072710308053863 
-0.3072710308053863 -0.3072710308053863 -0.3046509797759309 -0.3046509797759309 -0.3046509797759309 -0.3124945348440047 -0.3124945348440047 -0.3124945348440047 0.4834999452873586 
0.4834999452873586 0.4834999452873586 0.486831815954621 0.486831815954621 0.486831815954621 0.4899446146610287 0.4899446146610287 0.4899446146610287 -0.3099357885124508 
-0.3099357885124508 -0.3099357885124508 -0.3120348077340111 -0.3120348077340111 -0.3120348077340111 -0.3428157743170311 -0.3428157743170311 -0.3428157743170311 0.06122137932606909 
0.06122137932606909 0.06122137932606909 0.05870826140780844 0.05870826140780844 0.05870826140780844 0.05583729977536645 0.05583729977536645 0.05583729977536645 0.37241225907547 
0.37241225907547 0.37241225907547 0.3898476251312655 0.3898476251312655 0.3898476251312655 0.4814299220847125 0.4814299220847125 0.4814299220847125 0.7133403710110461 
0.7133403710110461 0.7133403710110461 0.716509975550393 0.716509975550393 0.716509975550393 -0.3679680385876551 -0.3679680385876551 -0.3679680385876551 -0.3637869098140207 
-0.3637869098140207 -0.3637869098140207 -0.5142576217170285 -0.5142576217170285 -0.5142576217170285 -0.5124869577571276 -0.5124869577571276 -0.5124869577571276 0.0494897212301719 
0.0494897212301719 0.0494897212301719 0.05293794292218944 0.05293794292218944 0.05293794292218944 -0.3352588261532854 -0.3352588261532854 -0.3352588261532854 -0.3465469272411645 
-0.3465469272411645 -0.3465469272411645 0.1696148609918516 0.1696148609918516 0.1696148609918516 0.1685610224038039 0.1685610224038039 0.1685610224038039 -0.2368765391247949 
-0.2368765391247949 -0.2368765391247949 -0.2343585348651202 -0.2343585348651202 -0.2343585348651202 0.202194926103143 0.202194926103143 0.202194926103143 0.1959959427832899 
0.1959959427832899 0.1959959427832899 -0.1667914572314461 -0.1667914572314461 -0.1667914572314461 -0.1697565434235015 -0.1697565434235015 -0.1697565434235015 -0.3547784481867402 
-0.3547784481867402 -0.3547784481867402 -0.3497072876747011 -0.3497072876747011 -0.3497072876747011 0.3515497227435167 0.3515497227435167 0.3515497227435167 0.3487935889004475 
0.3487935889004475 0.3487935889004475 -0.1477829808421884 -0.1477829808421884 -0.1477829808421884 -0.1529386948202407 -0.1529386948202407 -0.1529386948202407 -0.03086551160119974 
-0.03086551160119974 -0.03086551160119974 -0.03896903672466324 -0.03896903672466324 -0.03896903672466324 -0.2818918037796725 -0.2818918037796725 -0.2818918037796725 -0.2793786047021392 
-0.2793786047021392 -0.2793786047021392 -0.525738930312868 -0.525738930312868 -0.525738930312868 -0.5221189988399499 -0.5221189988399499 -0.5221189988399499 -0.03275680281352449 
-0.03275680281352449 -0.03275680281352449 -0.03038242846814069 -0.03038242846814069 -0.03038242846814069 0.3204129789283928 0.3204129789283928 0.3204129789283928 0.3158078223906631 
0.3158078223906631 0.3158078223906631 -0.3246723897517104 -0.3246723897517104 -0.3246723897517104 -0.3305292300918296 -0.3305292300918296 -0.3305292300918296 0.1824347362792287 
0.1824347362792287 0.1824347362792287 0.1796838231023633 0.1796838231023633 0.1796838231023633 -0.07348394513298229 -0.07348394513298229 -0.07348394513298229 -0.06317878552017339 
-0.06317878552017339 -0.06317878552017339 0.5963104768369782 0.5963104768369782 0.5963104768369782 0.691000764768318 0.691000764768318 0.691000764768318 0.6860534768655255 
0.6860534768655255 0.6860534768655255 0.4879885525487897 0.4879885525487897 0.4879885525487897 0.4818287260693938 0.4818287260693938 0.4818287260693938 -0.09749135709379464 
-0.09749135709379464 -0.09749135709379464 -0.1068641432372513 -0.1068641432372513 -0.1068641432372513 0.6531539472822545 0.6531539472822545 0.6531539472822545 0.6611529232451565 
0.6611529232451565 0.6611529232451565 -0.1900536497694255 -0.1900536497694255 -0.1900536497694255 -0.1843570018399808 -0.1843570018399808 -0.1843570018399808 -0.3174054319309936 
-0.3174054319309936 -0.3174054319309936 -0.320846828355201 -0.320846828355201 -0.320846828355201 0.7180764230565975 0.7180764230565975 0.7180764230565975 0.7151126607430216 
0.7151126607430216 0.7151126607430216 0.160027333868288 0.160027333868288 0.160027333868288 0.1533846411929689 0.1533846411929689 0.1533846411929689 0.1614501821828585 
0.1614501821828585 0.1614501821828585 0.1564501335669941 0.1564501335669941 0.1564501335669941 -0.3279950272169044 -0.3279950272169044 -0.3279950272169044 -0.3148020516344498 
-0.3148020516344498 -0.3148020516344498 -0.03376216603612035 -0.03376216603612035 -0.03376216603612035 0.2320255079421653 0.2320255079421653 0.2320255079421653 -0.004251309402300093 
-0.004251309402300093 -0.004251309402300093 0.01406029751698028 0.01406029751698028 0.01406029751698028 -0.5129042084863723 -0.5129042084863723 -0.5129042084863723 -0.4971946225436693 
-0.4971946225436693 -0.4971946225436693 -0.3449858814491572 -0.3449858814491572 -0.3449858814491572 -0.3519106173182168 -0.3519106173182168 -0.3519106173182168 0.02251080956753732 
0.02251080956753732 0.02251080956753732 0.03389972462316929 0.03389972462316929 0.03389972462316929 0.5459868521156632 0.5459868521156632 0.5459868521156632 0.4358046309628276 
0.4358046309628276 0.4358046309628276 0.2597187476655773 0.2597187476655773 0.2597187476655773 0.2613154738492399 0.2613154738492399 0.2613154738492399 0.2640095577323032 
0.2640095577323032 0.2640095577323032 -0.2913227030890008 -0.2913227030890008 -0.2913227030890008 -0.296118836817186 -0.296118836817186 -0.296118836817186 -0.2913961069376698 
-0.2913961069376698 -0.2913961069376698 -0.3054237200130469 -0.3054237200130469 -0.3054237200130469 -0.301749845662098 -0.301749845662098 -0.301749845662098 -0.2995496143312923 
-0.2995496143312923 -0.2995496143312923 0.08058074050726488 0.08058074050726488 0.08058074050726488 0.07781856469751985 0.07781856469751985 0.07781856469751985 0.07528782328078136 
0.07528782328078136 0.07528782328078136 -0.6496292550046888 -0.6496292550046888 -0.6496292550046888 -0.6583234520719735 -0.6583234520719735 -0.6583234520719735 -0.6590455576413182 
-0.6590455576413182 -0.6590455576413182 0.4777396299696939 0.4777396299696939 0.4777396299696939 0.4788415704641518 0.4788415704641518 0.4788415704641518 0.1342479795252186 
0.1342479795252186 0.1342479795252186 0.1317236018588884 0.1317236018588884 0.1317236018588884 0.1273469466840806 0.1273469466840806 0.1273469466840806 -0.1905073262144723 
-0.1905073262144723 -0.1905073262144723 -0.1967644304097844 -0.1967644304097844 -0.1967644304097844 -0.1952001095882013 -0.1952001095882013 -0.1952001095882013 -0.2523750954034237 
-0.2523750954034237 -0.2523750954034237 -0.2472002616194328 -0.2472002616194328 -0.2472002616194328 -0.2448818002673844 -0.2448818002673844 -0.2448818002673844 -0.02090545870283688 
-0.02090545870283688 -0.02090545870283688 -0.02655816655708353 -0.02655816655708353 -0.02655816655708353 -0.02894042811039932 -0.02894042811039932 -0.02894042811039932 -0.3627125903758444 
-0.3627125903758444 -0.3627125903758444 -0.359653053063641 -0.359653053063641 -0.359653053063641 -0.3666317590501581 -0.3666317590501581 -0.3666317590501581 0.160188883731064 
0.160188883731064 0.160188883731064 0.1556826873342427 0.1556826873342427 0.1556826873342427 0.1532326654969629 0.1532326654969629 0.1532326654969629 0.3543439360993442 
0.3543439360993442 0.3543439360993442 0.3544439626823432 0.3544439626823432 0.3544439626823432 0.3520253365353345 0.3520253365353345 0.3520253365353345 0.2656581157964979 
0.2656581157964979 0.2656581157964979 0.2681945782253627 0.2681945782253627 0.2681945782253627 -0.3630154054305397 -0.3630154054305397 -0.3630154054305397 -0.3602527582932306 
-0.3602527582932306 -0.3602527582932306 -0.3582405965753842 -0.3582405965753842 -0.3582405965753842 -0.16252980741905 -0.16252980741905 -0.16252980741905 -0.1569489906355656 
-0.1569489906355656 -0.1569489906355656 0.2812894898020361 0.2812894898020361 0.2812894898020361 0.2780680500744567 0.2780680500744567 0.2780680500744567 0.2402161485974363 
0.2402161485974363 0.2402161485974363 0.244335200818416 0.244335200818416 0.244335200818416 -0.2027198101003893 -0.2027198101003893 -0.2027198101003893 -0.2054712358871242 
-0.2054712358871242 -0.2054712358871242 0.6352693640319231 0.6352693640319231 0.6352693640319231 0.6316212420153199 0.6316212420153199 0.6316212420153199 0.2308492720721222 
0.2308492720721222 0.2308492720721222 0.2363565730066231 0.2363565730066231 0.2363565730066231 -0.5641432242647975 -0.5641432242647975 -0.5641432242647975 -0.561472882394924 
-0.561472882394924 -0.561472882394924 0.6887398778848566 0.6887398778848566 0.6887398778848566 0.6863532148513569 0.6863532148513569 0.6863532148513569 -0.460961666238728 
-0.460961666238728 -0.460961666238728 -0.4598777947078923 -0.4598777947078923 -0.4598777947078923 -0.05265628267982379 -0.05265628267982379 -0.05265628267982379 -0.02559332734331769 
-0.02559332734331769 -0.02559332734331769 -0.4066247270017383 -0.4066247270017383 -0.4066247270017383 -0.406633050566752 -0.406633050566752 -0.406633050566752 0.1968134238280727 
0.1968134238280727 0.1968134238280727 0.1939920108205726 0.1939920108205726 0.1939920108205726 -0.1948673965397059 -0.1948673965397059 -0.1948673965397059 -0.185043729132567 
-0.185043729132567 -0.185043729132567 0.02286119641353406 0.02286119641353406 0.02286119641353406 -0.1930233558597707 -0.1930233558597707 -0.1930233558597707 0.505413972222825 
0.505413972222825 0.505413972222825 0.6162776783690638 0.6162776783690638 0.6162776783690638 -0.5831773642723119 -0.5831773642723119 -0.5831773642723119 -0.5765382524351049 
-0.5765382524351049 -0.5765382524351049 -0.320290363908603 -0.320290363908603 -0.320290363908603 -0.4518279471720829 -0.4518279471720829 -0.4518279471720829 0.1871360076722754 
0.1871360076722754 0.1871360076722754 0.1835071644185998 0.1835071644185998 0.1835071644185998 -0.3778417667539158 -0.3778417667539158 -0.3778417667539158 -0.4627063653985344 
-0.4627063653985344 -0.4627063653985344 -0.3869938747505226 -0.3869938747505226 -0.3869938747505226 -0.3938309413639798 -0.3938309413639798 -0.3938309413639798 0.1901547824443603 
0.1901547824443603 0.1901547824443603 0.1918112728255155 0.1918112728255155 0.1918112728255155 -0.5434853974403508 -0.5434853974403508 -0.5434853974403508 -0.5415850965418203 
-0.5415850965418203 -0.5415850965418203 0.2386305707811941 0.2386305707811941 0.2386305707811941 0.2365638049822406 0.2365638049822406 0.2365638049822406 -0.5051538010226554 
-0.5051538010226554 -0.5051538010226554 -0.5082776693098014 -0.5082776693098014 -0.5082776693098014 -0.110171400167715 -0.110171400167715 -0.110171400167715 -0.1057887391764417 
-0.1057887391764417 -0.1057887391764417 -0.346674762276477 -0.346674762276477 -0.346674762276477 -0.3475053237010678 -0.3475053237010678 -0.3475053237010678 -0.4743637335163461 
-0.4743637335163461 -0.4743637335163461 -0.4725081766200162 -0.4725081766200162 -0.4725081766200162 -0.02244027672206737 -0.02244027672206737 -0.02244027672206737 -0.0250965388609405 
-0.0250965388609405 -0.0250965388609405 0.3734636790578956 0.3734636790578956 0.3734636790578956 0.3751309599818954 0.3751309599818954 0.3751309599818954 -0.3162176276389308 
-0.3162176276389308 -0.3162176276389308 -0.3185516349211061 -0.3185516349211061 -0.3185516349211061 0.3924631383543007 0.3924631383543007 0.3924631383543007 0.3947311980230935 
0.3947311980230935 0.3947311980230935 0.3399250516169597 0.3399250516169597 0.3399250516169597 0.3365519704370787 0.3365519704370787 0.3365519704370787 0.2585147558452951 
0.2585147558452951 0.2585147558452951 0.2560058030841856 0.2560058030841856 0.2560058030841856 0.7134009845204445 0.7134009845204445 0.7134009845204445 0.7175467889059219 
0.7175467889059219 0.7175467889059219 -0.3154862127598458 -0.3154862127598458 -0.3154862127598458 0.2972513360140759 0.2972513360140759 0.2972513360140759 0.3001456269404751 
0.3001456269404751 0.3001456269404751 -0.2216696770723837 -0.2216696770723837 -0.2216696770723837 -0.2310786533483045 -0.2310786533483045 -0.2310786533483045 -0.2330442080297127 
-0.2330442080297127 -0.2330442080297127 -0.2306146136668531 -0.2306146136668531 -0.2306146136668531 -0.4693963764179974 -0.4693963764179974 -0.4693963764179974 -0.4676760354568251 
-0.4676760354568251 -0.4676760354568251 0.4336766826465913 0.4336766826465913 0.4336766826465913 0.4368468673729143 0.4368468673729143 0.4368468673729143 0.437717712334687 
0.437717712334687 0.437717712334687 0.4405255629942321 0.4405255629942321 0.4405255629942321 -0.4022683595224776 -0.4022683595224776 -0.4022683595224776 -0.3913609234218596 
-0.3913609234218596 -0.3913609234218596 -0.1534962553214906 -0.1534962553214906 -0.1534962553214906 -0.1491344162088957 -0.1491344162088957 -0.1491344162088957 0.1734770970633931 
0.1734770970633931 0.1734770970633931 0.1758770644257301 0.1758770644257301 0.1758770644257301 -0.1403671519910194 -0.1403671519910194 -0.1403671519910194 -0.1375504738959979 
-0.1375504738959979 -0.1375504738959979 0.4761848771928654 0.4761848771928654 0.4761848771928654 0.03954706686743822 0.03954706686743822 0.03954706686743822 0.03662251199049846 
0.03662251199049846 0.03662251199049846 0.5557908363655696 0.5557908363655696 0.5557908363655696 0.5736569645246855 0.5736569645246855 0.5736569645246855 -0.3421986528541934 
-0.3421986528541934 -0.3421986528541934 -0.3386805744262993 -0.3386805744262993 -0.3386805744262993 -0.3108696019237672 -0.3108696019237672 -0.3108696019237672 -0.3068049005003969 
-0.3068049005003969 -0.3068049005003969 0.1744472596932854 0.1744472596932854 0.1744472596932854 0.1796401359111497 0.1796401359111497 0.1796401359111497 0.5308641738590056 
0.5308641738590056 0.5308641738590056 0.3047331968825879 0.3047331968825879 0.3047331968825879 0.3101759686731549 0.3101759686731549 0.3101759686731549 0.3012531311978215 
0.3012531311978215 0.3012531311978215 0.286698498614418 0.286698498614418 0.286698498614418 -0.163110786315068 -0.163110786315068 -0.163110786315068 -0.1607306783344055 
-0.1607306783344055 -0.1607306783344055 -0.2351843347781152 -0.2351843347781152 -0.2351843347781152 -0.2356697066959615 -0.2356697066959615 -0.2356697066959615 -0.5689307956595997 
-0.5689307956595997 -0.5689307956595997 -0.5665075336563175 -0.5665075336563175 -0.5665075336563175 0.6687376920311148 0.6687376920311148 0.6687376920311148 0.6657044199866544 
0.6657044199866544 0.6657044199866544 -0.3297892391394089 -0.3297892391394089 -0.3297892391394089 -0.332563261728181 -0.332563261728181 -0.332563261728181 0.3846368883128475 
0.3846368883128475 0.3846368883128475 0.4037583428951294 0.4037583428951294 0.4037583428951294 0.1406659537607686 0.1406659537607686 0.1406659537607686 0.132779602704368 
0.132779602704368 0.132779602704368 0.3127247782602555 0.3127247782602555 0.3127247782602555 0.3100056691887362 0.3100056691887362 0.3100056691887362 0.04994153562142446 
0.04994153562142446 0.04994153562142446 0.04742342408984274 0.04742342408984274 0.04742342408984274 -0.1168553687061415 -0.1168553687061415 -0.1168553687061415 -0.120619766585937 
-0.120619766585937 -0.120619766585937 -0.3190729720215865 -0.3190729720215865 -0.3190729720215865 -0.32026089843726 -0.32026089843726 -0.32026089843726 -0.02224774568130407 
-0.02224774568130407 -0.02224774568130407 -0.02291103581545016 -0.02291103581545016 -0.02291103581545016 -0.4171596067750414 -0.4171596067750414 -0.4171596067750414 -0.4897260494877791 
-0.4897260494877791 -0.4897260494877791 -0.1160774975996505 -0.1160774975996505 -0.1160774975996505 -0.6260416022900022 -0.6260416022900022 -0.6260416022900022 -0.6308355083584669 
-0.6308355083584669 -0.6308355083584669 -0.5207704994393491 -0.5207704994393491 -0.5207704994393491 -0.5191125368498335 -0.5191125368498335 -0.5191125368498335 0.7133786729197558 
0.7133786729197558 0.7133786729197558 0.7115081749881205 0.7115081749881205 0.7115081749881205 0.4764731881580944 0.4764731881580944 0.4764731881580944 0.4718301563612637 
0.4718301563612637 0.4718301563612637 0.1993817297467084 0.1993817297467084 0.1993817297467084 0.1922796817903905 0.1922796817903905 0.1922796817903905 0.4908220083855531 
0.4908220083855531 0.4908220083855531 0.4780992043447874 0.4780992043447874 0.4780992043447874 -0.121295988804665 -0.121295988804665 -0.121295988804665 -0.1155438907528239 
-0.1155438907528239 -0.1155438907528239 -0.3564647523606029 -0.3564647523606029 -0.3564647523606029 -0.3609029093122878 -0.3609029093122878 -0.3609029093122878 -0.2765403274145725 
-0.2765403274145725 -0.2765403274145725 -0.2704522229059845 -0.2704522229059845 -0.2704522229059845 -0.1228038692690116 -0.1228038692690116 -0.1228038692690116 -0.1299320786800933 
-0.1299320786800933 -0.1299320786800933 -0.3633733587508415 -0.3633733587508415 -0.3633733587508415 -0.3172406195438076 -0.3172406195438076 -0.3172406195438076 -0.2980154022142005 
-0.2980154022142005 -0.2980154022142005 -0.2944489304246702 -0.2944489304246702 -0.2944489304246702 0.0979404443183757 0.0979404443183757 0.0979404443183757 0.1014482624411381 
0.1014482624411381 0.1014482624411381 0.3830780785892811 0.3830780785892811 0.3830780785892811 0.3831684623972618 0.3831684623972618 0.3831684623972618 0.1258295771979319 
0.1258295771979319 0.1258295771979319 0.1195986217260483 0.1195986217260483 0.1195986217260483 0.01792127245179488 0.01792127245179488 0.01792127245179488 0.01293255970762909 
0.01293255970762909 0.01293255970762909 -0.5912910495872949 -0.5912910495872949 -0.5912910495872949 0.5470250659319404 0.5470250659319404 0.5470250659319404 0.5438465209988229 
0.5438465209988229 0.5438465209988229 0.4699117717135546 0.4699117717135546 0.4699117717135546 0.4765742992903818 0.4765742992903818 0.4765742992903818 -0.1691807171632356 
-0.1691807171632356 -0.1691807171632356 -0.1638664636131664 -0.1638664636131664 -0.1638664636131664 -0.2364483443007375 -0.2364483443007375 -0.2364483443007375 -0.2331037161209242 
-0.2331037161209242 -0.2331037161209242 0.1172599768646642 0.1172599768646642 0.1172599768646642 0.2875478601553915 0.2875478601553915 0.2875478601553915 -0.523232778149476 
-0.523232778149476 -0.523232778149476 -0.5291317801249862 -0.5291317801249862 -0.5291317801249862 -0.501609357654814 -0.501609357654814 -0.501609357654814 -0.4844746694542287 
-0.4844746694542287 -0.4844746694542287 0.5898529931129017 0.5898529931129017 0.5898529931129017 0.590998988233445 0.590998988233445 0.590998988233445 -0.2421109690672565 
-0.2421109690672565 -0.2421109690672565 -0.2343298772058638 -0.2343298772058638 -0.2343298772058638 -0.1002375842862598 -0.1002375842862598 -0.1002375842862598 -0.1000699020107086 
-0.1000699020107086 -0.1000699020107086 -0.3848953663667277 -0.3848953663667277 -0.3848953663667277 -0.3901831324271064 -0.3901831324271064 -0.3901831324271064 0.3132159982227016 
0.3132159982227016 0.3132159982227016 0.3200852928734732 0.3200852928734732 0.3200852928734732 0.3560068058061499 0.3560068058061499 0.3560068058061499 0.3472765475002836 
0.3472765475002836 0.3472765475002836 0.6683131534287937 0.6683131534287937 0.6683131534287937 0.6646127945155501 0.6646127945155501 0.6646127945155501 0.5344687893043043 
0.5344687893043043 0.5344687893043043 0.5404632347456075 0.5404632347456075 0.5404632347456075 -0.1719253043301406 -0.1719253043301406 -0.1719253043301406 -0.1629579608323833 
-0.1629579608323833 -0.1629579608323833 -0.2523315854296377 -0.2523315854296377 -0.2523315854296377 -0.2569295345316148 -0.2569295345316148 -0.2569295345316148 0.5325773740521197 
0.5325773740521197 0.5325773740521197 0.5329488141696943 0.5329488141696943 0.5329488141696943 -0.1419881437018416 -0.1419881437018416 -0.1419881437018416 -0.1373802757644099 
-0.1373802757644099 -0.1373802757644099 -0.3570179647322934 -0.3570179647322934 -0.3570179647322934 -0.3637138449147093 -0.3637138449147093 -0.3637138449147093 0.2837318515984564 
0.2837318515984564 0.2837318515984564 0.290412694819343 0.290412694819343 0.290412694819343 0.6861019420675769 0.6861019420675769 0.6861019420675769 0.6814023584503619 
0.6814023584503619 0.6814023584503619 -0.2322293440065594 -0.2322293440065594 -0.2322293440065594 -0.2335819901600955 -0.2335819901600955 -0.2335819901600955 -0.1121025437916411 
-0.1121025437916411 -0.1121025437916411 -0.03983171973114284 -0.03983171973114284 -0.03983171973114284 0.1471203912054807 0.1471203912054807 0.1471203912054807 0.1446362041409053 
0.1446362041409053 0.1446362041409053 -0.3561849298085108 -0.3561849298085108 -0.3561849298085108 -0.3477453701409736 -0.3477453701409736 -0.3477453701409736 0.2363953333591247 
0.2363953333591247 0.2363953333591247 0.2416829315544494 0.2416829315544494 0.2416829315544494 -0.4923579548025628 -0.4923579548025628 -0.4923579548025628 -0.4915073664240701 
-0.4915073664240701 -0.4915073664240701 0.07422004516817918 0.07422004516817918 0.07422004516817918 0.06890072477033878 0.06890072477033878 0.06890072477033878 0.3033350462007335 
0.3033350462007335 0.3033350462007335 0.3010983486146196 0.3010983486146196 0.3010983486146196 -0.1244501195076516 -0.1244501195076516 -0.1244501195076516 -0.1868267827639287 
-0.1868267827639287 -0.1868267827639287 -0.1016027413213339 -0.1016027413213339 -0.1016027413213339 -0.08979598647993564 -0.08979598647993564 -0.08979598647993564 -0.369842006667613 
-0.369842006667613 -0.369842006667613 -0.367978989695 -0.367978989695 -0.367978989695 -0.1186196308613257 -0.1186196308613257 -0.1186196308613257 -0.1286168017090588 
-0.1286168017090588 -0.1286168017090588 -0.3914839655078443 -0.3914839655078443 -0.3914839655078443 -0.389405716719522 -0.389405716719522 -0.389405716719522 0.37305205336075 
0.37305205336075 0.37305205336075 0.3635589112709284 0.3635589112709284 0.3635589112709284 0.3989872402620339 0.3989872402620339 0.3989872402620339 0.2583531785917497 
0.2583531785917497 0.2583531785917497 -0.2966654496079467 -0.2966654496079467 -0.2966654496079467 -0.3036961849903235 -0.3036961849903235 -0.3036961849903235 -0.3276384733378045 
-0.3276384733378045 -0.3276384733378045 -0.3210362325229289 -0.3210362325229289 -0.3210362325229289 0.6723586595916125 0.6723586595916125 0.6723586595916125 0.6765342155186442 
0.6765342155186442 0.6765342155186442 0.2896057952275461 0.2896057952275461 0.2896057952275461 0.2837324716703964 0.2837324716703964 0.2837324716703964 0.6500624465031206 
0.6500624465031206 0.6500624465031206 0.6457000559532178 0.6457000559532178 0.6457000559532178 0.5009780754329736 0.5009780754329736 0.5009780754329736 0.4888299763993604 
0.4888299763993604 0.4888299763993604 0.2781075568084395 0.2781075568084395 0.2781075568084395 0.1391503685995521 0.1391503685995521 0.1391503685995521 0.08375627714815825 
0.08375627714815825 0.08375627714815825 0.07304352035518533 0.07304352035518533 0.07304352035518533 -0.4777282009145477 -0.4777282009145477 -0.4777282009145477 -0.4801621703745174 
-0.4801621703745174 -0.4801621703745174 -0.4833649717617799 -0.4833649717617799 -0.4833649717617799 -0.3075671922231108 -0.3075671922231108 -0.3075671922231108 -0.2992400506762304 
-0.2992400506762304 -0.2992400506762304 -0.2794039315255811 -0.2794039315255811 -0.2794039315255811 -0.157491777551155 -0.157491777551155 -0.157491777551155 -0.1530609226390309 
-0.1530609226390309 -0.1530609226390309 -0.1525704117840025 -0.1525704117840025 -0.1525704117840025 -0.06362619061932334 -0.06362619061932334 -0.06362619061932334 -0.06649368324979636 
-0.06649368324979636 -0.06649368324979636 -0.06242652614276098 -0.06242652614276098 -0.06242652614276098 -0.4485641516792414 -0.4485641516792414 -0.4485641516792414 -0.4460783246066563 
-0.4460783246066563 -0.4460783246066563 -0.4448003104095737 -0.4448003104095737 -0.4448003104095737 -0.5572147358433741 -0.5572147358433741 -0.5572147358433741 -0.5514708977683289 
-0.5514708977683289 -0.5514708977683289 -0.5483198261843587 -0.5483198261843587 -0.5483198261843587 0.6793841698067858 0.6793841698067858 0.6793841698067858 -0.05485438969210277 
-0.05485438969210277 -0.05485438969210277 -0.05860588803424745 -0.05860588803424745 -0.05860588803424745 -0.06155730236187066 -0.06155730236187066 -0.06155730236187066 0.2336360555167973 
0.2336360555167973 0.2336360555167973 0.2368397174372736 0.2368397174372736 0.2368397174372736 0.2360923747807102 0.2360923747807102 0.2360923747807102 -0.08661057019094442 
-0.08661057019094442 -0.08661057019094442 -0.08557330337679495 -0.08557330337679495 -0.08557330337679495 -0.1025947827915915 -0.1025947827915915 -0.1025947827915915 -0.2210026154299938 
-0.2210026154299938 -0.2210026154299938 -0.177598907239793 -0.177598907239793 -0.177598907239793 -0.004770929258039338 -0.004770929258039338 -0.004770929258039338 -0.0626070519710403 
-0.0626070519710403 -0.0626070519710403 -0.05630333208363282 -0.05630333208363282 -0.05630333208363282 -0.05307245288519028 -0.05307245288519028 -0.05307245288519028 -0.2272316902321516 
-0.2272316902321516 -0.2272316902321516 -0.2388001931069359 -0.2388001931069359 -0.2388001931069359 -0.2369860035797287 -0.2369860035797287 -0.2369860035797287 0.544079632598427 
0.544079632598427 0.544079632598427 0.5400846785610867 0.5400846785610867 0.5400846785610867 0.5376802636094349 0.5376802636094349 0.5376802636094349 -0.3831724073088232 
-0.3831724073088232 -0.3831724073088232 -0.3805130658880947 -0.3805130658880947 -0.3805130658880947 -0.380630453470048 -0.380630453470048 -0.380630453470048 -0.07662269113945118 
-0.07662269113945118 -0.07662269113945118 -0.08078665887058127 -0.08078665887058127 -0.08078665887058127 -0.05558176116208328 -0.05558176116208328 -0.05558176116208328 0.01142022810027046 
0.01142022810027046 0.01142022810027046 0.009993530288632965 0.009993530288632965 0.009993530288632965 0.002443633649062639 0.002443633649062639 0.002443633649062639 -0.2636667389490834 
-0.2636667389490834 -0.2636667389490834 -0.2618216440868578 -0.2618216440868578 -0.2618216440868578 -0.2593513421083704 -0.2593513421083704 -0.2593513421083704 -0.4245215095227991 
-0.4245215095227991 -0.4245215095227991 -0.4150427779289938 -0.4150427779289938 -0.4150427779289938 -0.4165543088971346 -0.4165543088971346 -0.4165543088971346 0.5933734681155151 
0.5933734681155151 0.5933734681155151 0.5962571795365939 0.5962571795365939 0.5962571795365939 0.5987044058363309 0.5987044058363309 0.5987044058363309 0.5495896925902497 
0.5495896925902497 0.5495896925902497 0.5787660318253043 0.5787660318253043 0.5787660318253043 0.6784308666182037 0.6784308666182037 0.6784308666182037 0.4138940553151191 
0.4138940553151191 0.4138940553151191 0.4166451715255915 0.4166451715255915 0.4166451715255915 0.4195388042652856 0.4195388042652856 0.4195388042652856 -0.5278434902762951 
-0.5278434902762951 -0.5278434902762951 -0.5250533529582679 -0.5250533529582679 -0.5250533529582679 -0.5227892524819653 -0.5227892524819653 -0.5227892524819653 0.2517885014490371 
0.2517885014490371 0.2517885014490371 0.2540257670738352 0.2540257670738352 0.2540257670738352 0.2570208963864322 0.2570208963864322 0.2570208963864322 -0.226325616611435 
-0.226325616611435 -0.226325616611435 -0.2319532032273308 -0.2319532032273308 -0.2319532032273308 -0.2349170689448762 -0.2349170689448762 -0.2349170689448762 -0.548056003973858 
-0.548056003973858 -0.548056003973858 -0.5449784180764276 -0.5449784180764276 -0.5449784180764276 -0.5422513625232852 -0.5422513625232852 -0.5422513625232852 0.4805532013831589 
0.4805532013831589 0.4805532013831589 0.466276747211917 0.466276747211917 0.466276747211917 0.464880921338236 0.464880921338236 0.464880921338236 -0.5764594384163001 
-0.5764594384163001 -0.5764594384163001 -0.5754368352038663 -0.5754368352038663 -0.5754368352038663 -0.5728331701018821 -0.5728331701018821 -0.5728331701018821 -0.4551454792132548 