Title = Triangle100
FileType = Solution
Variables = q
Zone T = Triangle100
ZoneType = FETriangle
Nodes = 99072
Elements = 33024
DataPacking = Block
StrandID = 3
SolutionTime = 0.2
0.3883263707110678 0.3883263707110678 0.3883263707110678 0.3781589761960014 0.3781589761960014 0.3781589761960014 0.3723277686785201 0.3723277686785201 0.3723277686785201 -0.2088451293191612 
-0.2088451293191612 -0.2088451293191612 -0.1904822433255157 -0.1904822433255157 -0.1904822433255157 0.6523964738271684 0.6523964738271684 0.6523964738271684 0.6671815508940485 
0.6671815508940485 0.6671815508940485 -0.8245237707143206 -0.8245237707143206 -0.8245237707143206 -0.8276613999241413 -0.8276613999241413 -0.8276613999241413 0.4287131789496101 
0.4287131789496101 0.4287131789496101 0.421830578997982 0.421830578997982 0.421830578997982 -0.01583309684146952 -0.01583309684146952 -0.01583309684146952 -0.01181425665440743 
-0.01181425665440743 -0.01181425665440743 -0.449604022506382 -0.449604022506382 -0.449604022506382 -0.4569354972575091 -0.4569354972575091 -0.4569354972575091 0.3089354918321 
0.3089354918321 0.3089354918321 0.2909599378553107 0.2909599378553107 0.2909599378553107 -0.06058714609119889 -0.06058714609119889 -0.06058714609119889 -0.06335355126075626 
-0.06335355126075626 -0.06335355126075626 0.809599250698228 0.809599250698228 0.809599250698228 0.7907487363472834 0.7907487363472834 0.7907487363472834 0.7746133089201034 
0.7746133089201034 0.7746133089201034 0.2932716903971235 0.2932716903971235 0.2932716903971235 0.2857371186222076 0.2857371186222076 0.2857371186222076 -0.7605090555289126 
-0.7605090555289126 -0.7605090555289126 -0.7350098267603228 -0.7350098267603228 -0.7350098267603228 -0.850795326488842 -0.850795326488842 -0.850795326488842 -0.8631426149094765 
-0.8631426149094765 -0.8631426149094765 -0.2616435637984099 -0.2616435637984099 -0.2616435637984099 -0.2592366864755811 -0.2592366864755811 -0.2592366864755811 -0.1786444619595906 
-0.1786444619595906 -0.1786444619595906 -0.18381748302614 -0.18381748302614 -0.18381748302614 -0.1913051249636113 -0.1913051249636113 -0.1913051249636113 0.3426852426898417 
0.3426852426898417 0.3426852426898417 0.3352546353888967 0.3352546353888967 0.3352546353888967 0.3295018008611902 0.3295018008611902 0.3295018008611902 -0.7953962525576719 
-0.7953962525576719 -0.7953962525576719 -0.7895291530578531 -0.7895291530578531 -0.7895291530578531 -0.8083288315578157 -0.8083288315578157 -0.8083288315578157 -0.02180334837717053 
-0.02180334837717053 -0.02180334837717053 -0.01871548054185731 -0.01871548054185731 -0.01871548054185731 -0.01468753079857264 -0.01468753079857264 -0.01468753079857264 0.2914307594533294 
0.2914307594533294 0.2914307594533294 0.2953401060057167 0.2953401060057167 0.2953401060057167 0.295349928531002 0.295349928531002 0.295349928531002 0.1553079506318742 
0.1553079506318742 0.1553079506318742 0.1489417429124953 0.1489417429124953 0.1489417429124953 0.1416151825699931 0.1416151825699931 0.1416151825699931 0.1404474321653226 
0.1404474321653226 0.1404474321653226 0.1334682172092287 0.1334682172092287 0.1334682172092287 0.1304076493064609 0.1304076493064609 0.1304076493064609 0.5469253352372617 
0.5469253352372617 0.5469253352372617 0.5379142689490641 0.5379142689490641 0.5379142689490641 -0.9137562101821097 -0.9137562101821097 -0.9137562101821097 -0.9068066477938168 
-0.9068066477938168 -0.9068066477938168 -0.03874922623762727 -0.03874922623762727 -0.03874922623762727 -0.03523619513039797 -0.03523619513039797 -0.03523619513039797 0.1265551994945504 
0.1265551994945504 0.1265551994945504 0.1357747617775421 0.1357747617775421 0.1357747617775421 0.3313895195739442 0.3313895195739442 0.3313895195739442 0.3155342144450205 
0.3155342144450205 0.3155342144450205 0.4408559316166415 0.4408559316166415 0.4408559316166415 0.4387824020621994 0.4387824020621994 0.4387824020621994 -0.6229050943942673 
-0.6229050943942673 -0.6229050943942673 -0.6163172821522731 -0.6163172821522731 -0.6163172821522731 0.478160867542773 0.478160867542773 0.478160867542773 0.4594816489206328 
0.4594816489206328 0.4594816489206328 -0.4360319232224515 -0.4360319232224515 -0.4360319232224515 -0.4434508494100247 -0.4434508494100247 -0.4434508494100247 -0.8375291860224665 
-0.8375291860224665 -0.8375291860224665 -0.8178836273733153 -0.8178836273733153 -0.8178836273733153 0.6971027190615988 0.6971027190615988 0.6971027190615988 0.7131626086023157 
0.7131626086023157 0.7131626086023157 -0.3813779340790315 -0.3813779340790315 -0.3813779340790315 -0.3939052125986447 -0.3939052125986447 -0.3939052125986447 -0.05622426168712076 
-0.05622426168712076 -0.05622426168712076 -0.04880339113732284 -0.04880339113732284 -0.04880339113732284 -0.7399216809018831 -0.7399216809018831 -0.7399216809018831 -0.7336314098788241 
-0.7336314098788241 -0.7336314098788241 -0.04800290784137235 -0.04800290784137235 -0.04800290784137235 -0.05306686876972895 -0.05306686876972895 -0.05306686876972895 -0.08182347702362941 
-0.08182347702362941 -0.08182347702362941 -0.0755922098189275 -0.0755922098189275 -0.0755922098189275 0.8051008187434575 0.8051008187434575 0.8051008187434575 0.7952280461410732 
0.7952280461410732 0.7952280461410732 -0.6971429908663588 -0.6971429908663588 -0.6971429908663588 -0.6919560756216045 -0.6919560756216045 -0.6919560756216045 0.4669302510075034 
0.4669302510075034 0.4669302510075034 0.4605748061060431 0.4605748061060431 0.4605748061060431 -0.1826655159619209 -0.1826655159619209 -0.1826655159619209 -0.155568905831236 
-0.155568905831236 -0.155568905831236 0.2142895772797314 0.2142895772797314 0.2142895772797314 0.4641849263287168 0.4641849263287168 0.4641849263287168 0.4498990801094698 
0.4498990801094698 0.4498990801094698 -0.04651681272153911 -0.04651681272153911 -0.04651681272153911 -0.05348546276327359 -0.05348546276327359 -0.05348546276327359 -0.2468240351972238 
-0.2468240351972238 -0.2468240351972238 -0.2721079353227727 -0.2721079353227727 -0.2721079353227727 0.5610755299797681 0.5610755299797681 0.5610755299797681 0.5451417662814058 
0.5451417662814058 0.5451417662814058 -0.4843586880324983 -0.4843586880324983 -0.4843586880324983 -0.4713081616631699 -0.4713081616631699 -0.4713081616631699 -0.8209311245609658 
-0.8209311245609658 -0.8209311245609658 -0.8272978116466906 -0.8272978116466906 -0.8272978116466906 0.5457185833624061 0.5457185833624061 0.5457185833624061 0.5347064730860271 
0.5347064730860271 0.5347064730860271 0.4162283735839181 0.4162283735839181 0.4162283735839181 0.3994397010293687 0.3994397010293687 0.3994397010293687 0.4234874444440134 
0.4234874444440134 0.4234874444440134 0.4102291695581011 0.4102291695581011 0.4102291695581011 0.3402623404520027 0.3402623404520027 0.3402623404520027 0.3562132622286598 
0.3562132622286598 0.3562132622286598 -0.2266984010299954 -0.2266984010299954 -0.2266984010299954 -0.2267503479603289 -0.2267503479603289 -0.2267503479603289 0.02650235680152156 
0.02650235680152156 0.02650235680152156 0.03321869700486058 0.03321869700486058 0.03321869700486058 -0.1046784932545586 -0.1046784932545586 -0.1046784932545586 -0.08478815847976319 
-0.08478815847976319 -0.08478815847976319 -0.8097202792418403 -0.8097202792418403 -0.8097202792418403 -0.8342182438534738 -0.8342182438534738 -0.8342182438534738 0.05619442527103456 
0.05619442527103456 0.05619442527103456 0.08249407613090401 0.08249407613090401 0.08249407613090401 0.116605102845543 0.116605102845543 0.116605102845543 0.1037647805873362 
0.1037647805873362 0.1037647805873362 0.6126160728095604 0.6126160728095604 0.6126160728095604 0.6116526576235359 0.6116526576235359 0.6116526576235359 0.6144639375248204 
0.6144639375248204 0.6144639375248204 -0.753091828370017 -0.753091828370017 -0.753091828370017 -0.7623076471031216 -0.7623076471031216 -0.7623076471031216 -0.7484647507883675 
-0.7484647507883675 -0.7484647507883675 -0.796514233544544 -0.796514233544544 -0.796514233544544 -0.7877973631322444 -0.7877973631322444 -0.7877973631322444 -0.782555824504894 
-0.782555824504894 -0.782555824504894 0.2063131493385111 0.2063131493385111 0.2063131493385111 0.1992915076225331 0.1992915076225331 0.1992915076225331 0.1928417797130155 
0.1928417797130155 0.1928417797130155 -0.395441242193683 -0.395441242193683 -0.395441242193683 -0.4047760367191087 -0.4047760367191087 -0.4047760367191087 -0.4124990470713533 
-0.4124990470713533 -0.4124990470713533 -0.02725121491131858 -0.02725121491131858 -0.02725121491131858 -0.02046793947607442 -0.02046793947607442 -0.02046793947607442 0.3506772734265435 
0.3506772734265435 0.3506772734265435 0.3441701593466894 0.3441701593466894 0.3441701593466894 0.331972343318104 0.331972343318104 0.331972343318104 -0.4939965384121968 
-0.4939965384121968 -0.4939965384121968 -0.51192992542619 -0.51192992542619 -0.51192992542619 -0.5092168857833876 -0.5092168857833876 -0.5092168857833876 -0.6532906312215881 
-0.6532906312215881 -0.6532906312215881 -0.6399514624064022 -0.6399514624064022 -0.6399514624064022 -0.634617914911382 -0.634617914911382 -0.634617914911382 -0.04885967594850329 
-0.04885967594850329 -0.04885967594850329 -0.06478366248385209 -0.06478366248385209 -0.06478366248385209 -0.07102664952845299 -0.07102664952845299 -0.07102664952845299 0.3126549846850231 
0.3126549846850231 0.3126549846850231 0.3151273146330704 0.3151273146330704 0.3151273146330704 0.3177341724230541 0.3177341724230541 0.3177341724230541 0.4206554899335251 
0.4206554899335251 0.4206554899335251 0.408708897824089 0.408708897824089 0.408708897824089 0.4021664590453022 0.4021664590453022 0.4021664590453022 0.8068403830945439 
0.8068403830945439 0.8068403830945439 0.8223535118781449 0.8223535118781449 0.8223535118781449 0.8215787342543337 0.8215787342543337 0.8215787342543337 0.6119546509091326 
0.6119546509091326 0.6119546509091326 0.6139720743687015 0.6139720743687015 0.6139720743687015 -0.8989129434467432 -0.8989129434467432 -0.8989129434467432 -0.8949629607155662 
-0.8949629607155662 -0.8949629607155662 -0.891963377298451 -0.891963377298451 -0.891963377298451 -0.4223382637408689 -0.4223382637408689 -0.4223382637408689 -0.4068914917816021 
-0.4068914917816021 -0.4068914917816021 0.6669857941557839 0.6669857941557839 0.6669857941557839 0.6612367557278171 0.6612367557278171 0.6612367557278171 0.5856464603357701 
0.5856464603357701 0.5856464603357701 0.6021757192039801 0.6021757192039801 0.6021757192039801 -0.5213326284561648 -0.5213326284561648 -0.5213326284561648 -0.5295907740233118 
-0.5295907740233118 -0.5295907740233118 0.3131366460454578 0.3131366460454578 0.3131366460454578 0.3034659028033518 0.3034659028033518 0.3034659028033518 0.5977070212637545 
0.5977070212637545 0.5977070212637545 0.6119833894351487 0.6119833894351487 0.6119833894351487 -0.1372788357628296 -0.1372788357628296 -0.1372788357628296 -0.1312584298843679 
-0.1312584298843679 -0.1312584298843679 0.4719996751088802 0.4719996751088802 0.4719996751088802 0.4645625695221361 0.4645625695221361 0.4645625695221361 0.02752571677116889 
0.02752571677116889 0.02752571677116889 0.02059634552696355 0.02059634552696355 0.02059634552696355 -0.1353633075931778 -0.1353633075931778 -0.1353633075931778 -0.1263816821283112 
-0.1263816821283112 -0.1263816821283112 0.2364541663491741 0.2364541663491741 0.2364541663491741 0.2448381541296031 0.2448381541296031 0.2448381541296031 0.4789997727575533 
0.4789997727575533 0.4789997727575533 0.4732317777810506 0.4732317777810506 0.4732317777810506 -0.4602206897672614 -0.4602206897672614 -0.4602206897672614 -0.443173770126652 
-0.443173770126652 -0.443173770126652 0.05506825159941713 0.05506825159941713 0.05506825159941713 0.04634836760917918 0.04634836760917918 0.04634836760917918 0.5753098188381857 
0.5753098188381857 0.5753098188381857 0.5673510737966991 0.5673510737966991 0.5673510737966991 -0.3210562534522305 -0.3210562534522305 -0.3210562534522305 -0.3284635710727778 
-0.3284635710727778 -0.3284635710727778 -0.3309292358102827 -0.3309292358102827 -0.3309292358102827 -0.3364887573835436 -0.3364887573835436 -0.3364887573835436 0.4870152805675333 
0.4870152805675333 0.4870152805675333 0.4780706046516395 0.4780706046516395 0.4780706046516395 -0.1131778201165596 -0.1131778201165596 -0.1131778201165596 -0.1127923262113697 
-0.1127923262113697 -0.1127923262113697 -0.8897925393338585 -0.8897925393338585 -0.8897925393338585 -0.9091413352091184 -0.9091413352091184 -0.9091413352091184 0.4811106793783747 
0.4811106793783747 0.4811106793783747 0.4833805780985282 0.4833805780985282 0.4833805780985282 -0.09011193772479344 -0.09011193772479344 -0.09011193772479344 -0.08666698592977221 
-0.08666698592977221 -0.08666698592977221 0.6273592576032846 0.6273592576032846 0.6273592576032846 0.6218556956865048 0.6218556956865048 0.6218556956865048 -0.02546063467202386 
-0.02546063467202386 -0.02546063467202386 -0.02967138261570142 -0.02967138261570142 -0.02967138261570142 -0.287376551402632 -0.287376551402632 -0.287376551402632 -0.2759931611318645 
-0.2759931611318645 -0.2759931611318645 -0.8871092617548492 -0.8871092617548492 -0.8871092617548492 -0.887659323051754 -0.887659323051754 -0.887659323051754 0.008628921015144727 
0.008628921015144727 0.008628921015144727 0.01630487499566185 0.01630487499566185 0.01630487499566185 -0.05389166313871273 -0.05389166313871273 -0.05389166313871273 -0.0609604570423945 
-0.0609604570423945 -0.0609604570423945 0.9088244222920636 0.9088244222920636 0.9088244222920636 0.9059915329528521 0.9059915329528521 0.9059915329528521 -0.8162665145323438 
-0.8162665145323438 -0.8162665145323438 -0.8202232549742812 -0.8202232549742812 -0.8202232549742812 0.9534325237364306 0.9534325237364306 0.9534325237364306 0.9581336061730906 
0.9581336061730906 0.9581336061730906 0.8046016968512408 0.8046016968512408 0.8046016968512408 0.7842824777110604 0.7842824777110604 0.7842824777110604 0.675833979999332 
0.675833979999332 0.675833979999332 0.6697298952769288 0.6697298952769288 0.6697298952769288 0.5606821134819671 0.5606821134819671 0.5606821134819671 0.5536974094882632 
0.5536974094882632 0.5536974094882632 -0.8148888638255483 -0.8148888638255483 -0.8148888638255483 0.6579189641459942 0.6579189641459942 0.6579189641459942 0.6574233981546833 
0.6574233981546833 0.6574233981546833 -0.5808390200036321 -0.5808390200036321 -0.5808390200036321 -0.5900369450297087 -0.5900369450297087 -0.5900369450297087 -0.6128018763736647 
-0.6128018763736647 -0.6128018763736647 -0.606362349902157 -0.606362349902157 -0.606362349902157 0.09112246827958356 0.09112246827958356 0.09112246827958356 0.0944029482379183 
0.0944029482379183 0.0944029482379183 -0.1876247803670837 -0.1876247803670837 -0.1876247803670837 -0.1841880600597179 -0.1841880600597179 -0.1841880600597179 -0.1277760685696189 
-0.1277760685696189 -0.1277760685696189 -0.1262292042841774 -0.1262292042841774 -0.1262292042841774 0.2558308244616044 0.2558308244616044 0.2558308244616044 0.2768076483191321 
0.2768076483191321 0.2768076483191321 -0.4034734707021095 -0.4034734707021095 -0.4034734707021095 -0.3922601021603429 -0.3922601021603429 -0.3922601021603429 0.4496640448670578 
0.4496640448670578 0.4496640448670578 0.4554889311286365 0.4554889311286365 0.4554889311286365 -0.3684807941320427 -0.3684807941320427 -0.3684807941320427 -0.360912357290552 
-0.360912357290552 -0.360912357290552 -0.02215928083831912 -0.02215928083831912 -0.02215928083831912 0.09972974798983765 0.09972974798983765 0.09972974798983765 0.09230374208079875 
0.09230374208079875 0.09230374208079875 0.1703899579537625 0.1703899579537625 0.1703899579537625 0.1690424213762184 0.1690424213762184 0.1690424213762184 -0.7961799735492288 
-0.7961799735492288 -0.7961799735492288 -0.7938898126073287 -0.7938898126073287 -0.7938898126073287 -0.657311824928683 -0.657311824928683 -0.657311824928683 -0.6524968993613868 
-0.6524968993613868 -0.6524968993613868 0.4416310559715349 0.4416310559715349 0.4416310559715349 0.4554794448517713 0.4554794448517713 0.4554794448517713 0.1476440597907212 
0.1476440597907212 0.1476440597907212 0.7167093752784943 0.7167093752784943 0.7167093752784943 0.7388609406997881 0.7388609406997881 0.7388609406997881 -0.3622935643216149 
-0.3622935643216149 -0.3622935643216149 -0.3590191755072132 -0.3590191755072132 -0.3590191755072132 -0.4279873576190923 -0.4279873576190923 -0.4279873576190923 -0.4210832594802436 
-0.4210832594802436 -0.4210832594802436 -0.6177915757091955 -0.6177915757091955 -0.6177915757091955 -0.6194144739461508 -0.6194144739461508 -0.6194144739461508 -0.1485562089782143 
-0.1485562089782143 -0.1485562089782143 -0.1426129130552932 -0.1426129130552932 -0.1426129130552932 0.4038259067485439 0.4038259067485439 0.4038259067485439 0.395624074419767 
0.395624074419767 0.395624074419767 -0.5866291522861521 -0.5866291522861521 -0.5866291522861521 -0.4766466435008399 -0.4766466435008399 -0.4766466435008399 0.1742631024163913 
0.1742631024163913 0.1742631024163913 0.1683482884425148 0.1683482884425148 0.1683482884425148 0.3692663874026998 0.3692663874026998 0.3692663874026998 0.3479710172115401 
0.3479710172115401 0.3479710172115401 0.7295587321810639 0.7295587321810639 0.7295587321810639 0.7276447581926617 0.7276447581926617 0.7276447581926617 0.1280457291700123 
0.1280457291700123 0.1280457291700123 0.1211767060554793 0.1211767060554793 0.1211767060554793 -0.2909199762861944 -0.2909199762861944 -0.2909199762861944 -0.3002165943352361 
-0.3002165943352361 -0.3002165943352361 0.3913376434026508 0.3913376434026508 0.3913376434026508 0.3903354253356522 0.3903354253356522 0.3903354253356522 -0.05374426190656157 
-0.05374426190656157 -0.05374426190656157 -0.05592074504447722 -0.05592074504447722 -0.05592074504447722 -0.9251631741300035 -0.9251631741300035 -0.9251631741300035 0.01142713104032573 
0.01142713104032573 0.01142713104032573 -0.2897039066722231 -0.2897039066722231 -0.2897039066722231 -0.4254868327154461 -0.4254868327154461 -0.4254868327154461 -0.4066423955618559 
-0.4066423955618559 -0.4066423955618559 -0.06431834284846732 -0.06431834284846732 -0.06431834284846732 -0.05001835576707601 -0.05001835576707601 -0.05001835576707601 0.5361654667039271 
0.5361654667039271 0.5361654667039271 0.5221740045942923 0.5221740045942923 0.5221740045942923 -0.06083595354012301 -0.06083595354012301 -0.06083595354012301 -0.0610385589591074 
-0.0610385589591074 -0.0610385589591074 0.5183858474694683 0.5183858474694683 0.5183858474694683 0.497636230872875 0.497636230872875 0.497636230872875 -0.05647563144736802 
-0.05647563144736802 -0.05647563144736802 -0.07661504582528278 -0.07661504582528278 -0.07661504582528278 -0.318568500165907 -0.318568500165907 -0.318568500165907 -0.3032916204706674 
-0.3032916204706674 -0.3032916204706674 -0.8136033690698251 -0.8136033690698251 -0.8136033690698251 -0.804143089256421 -0.804143089256421 -0.804143089256421 -0.7266809054653787 
-0.7266809054653787 -0.7266809054653787 -0.7111613824532073 -0.7111613824532073 -0.7111613824532073 -0.3198893442000445 -0.3198893442000445 -0.3198893442000445 -0.3377449701738043 
-0.3377449701738043 -0.3377449701738043 0.3180250453043498 0.3180250453043498 0.3180250453043498 0.3476385831941798 0.3476385831941798 0.3476385831941798 -0.5630628783526374 
-0.5630628783526374 -0.5630628783526374 0.09400780960022682 0.09400780960022682 0.09400780960022682 0.2563321562557275 0.2563321562557275 0.2563321562557275 0.2648159710296991 
0.2648159710296991 0.2648159710296991 0.7584683216931158 0.7584683216931158 0.7584683216931158 0.3785639375120156 0.3785639375120156 0.3785639375120156 0.323493992374479 
0.323493992374479 0.323493992374479 0.3081022734602067 0.3081022734602067 0.3081022734602067 0.04162662164329914 0.04162662164329914 0.04162662164329914 0.02895234909714453 
0.02895234909714453 0.02895234909714453 -0.200405630334255 -0.200405630334255 -0.200405630334255 0.09450718401428473 0.09450718401428473 0.09450718401428473 0.09018285101073421 
0.09018285101073421 0.09018285101073421 -0.04817127285194817 -0.04817127285194817 -0.04817127285194817 -0.03504039527736242 -0.03504039527736242 -0.03504039527736242 -0.44485000796272 
-0.44485000796272 -0.44485000796272 -0.43091736983582 -0.43091736983582 -0.43091736983582 -0.5497865028159332 -0.5497865028159332 -0.5497865028159332 -0.529530983094647 
-0.529530983094647 -0.529530983094647 -0.1866893770407056 -0.1866893770407056 -0.1866893770407056 -0.1881440468344484 -0.1881440468344484 -0.1881440468344484 -0.04393589230276132 
-0.04393589230276132 -0.04393589230276132 -0.04421747213790329 -0.04421747213790329 -0.04421747213790329 0.02935355729481243 0.02935355729481243 0.02935355729481243 0.04430267552293647 
0.04430267552293647 0.04430267552293647 0.1977259700626872 0.1977259700626872 0.1977259700626872 0.2010549439137728 0.2010549439137728 0.2010549439137728 -0.6294510212208712 
-0.6294510212208712 -0.6294510212208712 -0.6100052216424475 -0.6100052216424475 -0.6100052216424475 -0.2505849947355172 -0.2505849947355172 -0.2505849947355172 -0.2477071510264537 
-0.2477071510264537 -0.2477071510264537 -0.882560458503809 -0.882560458503809 -0.882560458503809 -0.895504976516784 -0.895504976516784 -0.895504976516784 0.7749701614933187 
0.7749701614933187 0.7749701614933187 0.7851670970380007 0.7851670970380007 0.7851670970380007 0.7627179509176291 0.7627179509176291 0.7627179509176291 0.7557521708896904 
0.7557521708896904 0.7557521708896904 0.4020191912720744 0.4020191912720744 0.4020191912720744 0.3919188762286951 0.3919188762286951 0.3919188762286951 0.06642626214566222 
0.06642626214566222 0.06642626214566222 0.08256092591116507 0.08256092591116507 0.08256092591116507 -0.4507683166135455 -0.4507683166135455 -0.4507683166135455 -0.4264329810259515 
-0.4264329810259515 -0.4264329810259515 -0.6585328834606292 -0.6585328834606292 -0.6585328834606292 -0.6717351525108138 -0.6717351525108138 -0.6717351525108138 0.06489730681000203 
0.06489730681000203 0.06489730681000203 0.06300524354396081 0.06300524354396081 0.06300524354396081 -0.2886151228563892 -0.2886151228563892 -0.2886151228563892 -0.3042650709567571 
-0.3042650709567571 -0.3042650709567571 -0.772051121928422 -0.772051121928422 -0.772051121928422 -0.770150299997965 -0.770150299997965 -0.770150299997965 0.734513284598851 
0.734513284598851 0.734513284598851 0.7505556654254534 0.7505556654254534 0.7505556654254534 0.4500547524799587 0.4500547524799587 0.4500547524799587 0.4370910184041572 
0.4370910184041572 0.4370910184041572 -0.5866130170111056 -0.5866130170111056 -0.5866130170111056 -0.5958858952691103 -0.5958858952691103 -0.5958858952691103 -0.02377668487238111 
-0.02377668487238111 -0.02377668487238111 -0.04107740403391435 -0.04107740403391435 -0.04107740403391435 0.3865983779466065 0.3865983779466065 0.3865983779466065 0.3799095304195408 
0.3799095304195408 0.3799095304195408 -0.8161055309702309 -0.8161055309702309 -0.8161055309702309 -0.7974752958580125 -0.7974752958580125 -0.7974752958580125 0.5812363790380415 
0.5812363790380415 0.5812363790380415 0.5892893661050251 0.5892893661050251 0.5892893661050251 -0.008693240691070379 -0.008693240691070379 -0.008693240691070379 -0.009692566031849517 
-0.009692566031849517 -0.009692566031849517 0.1904690129964834 0.1904690129964834 0.1904690129964834 0.1768139836907862 0.1768139836907862 0.1768139836907862 0.7876366334231345 
0.7876366334231345 0.7876366334231345 0.7805865326232244 0.7805865326232244 0.7805865326232244 -0.4071191376896529 -0.4071191376896529 -0.4071191376896529 -0.4395103942902439 
-0.4395103942902439 -0.4395103942902439 -0.3378606436609989 -0.3378606436609989 -0.3378606436609989 -0.3454594321241309 -0.3454594321241309 -0.3454594321241309 -0.890171652000711 
-0.890171652000711 -0.890171652000711 -0.8971285004039773 -0.8971285004039773 -0.8971285004039773 -0.2946973874599436 -0.2946973874599436 -0.2946973874599436 -0.3207603758972767 
-0.3207603758972767 -0.3207603758972767 -0.9232489928027559 -0.9232489928027559 -0.9232489928027559 -0.9343404922326435 -0.9343404922326435 -0.9343404922326435 0.7806395191453752 
0.7806395191453752 0.7806395191453752 0.7624653186981966 0.7624653186981966 0.7624653186981966 0.1098228175874802 0.1098228175874802 0.1098228175874802 0.09135251603055485 
0.09135251603055485 0.09135251603055485 -0.6469372401075364 -0.6469372401075364 -0.6469372401075364 -0.6791108498937812 -0.6791108498937812 -0.6791108498937812 -0.7420712921893995 
-0.7420712921893995 -0.7420712921893995 -0.7415951822531632 -0.7415951822531632 -0.7415951822531632 0.4314089113347813 0.4314089113347813 0.4314089113347813 0.4470113596139154 
0.4470113596139154 0.4470113596139154 0.6786854790553105 0.6786854790553105 0.6786854790553105 0.6413933139154235 0.6413933139154235 0.6413933139154235 0.3526054474631396 
0.3526054474631396 0.3526054474631396 0.3407878739159443 0.3407878739159443 0.3407878739159443 -0.03621408121354317 -0.03621408121354317 -0.03621408121354317 -0.05819540988818762 
-0.05819540988818762 -0.05819540988818762 0.1790294106232136 0.1790294106232136 0.1790294106232136 0.167554776985701 0.167554776985701 0.167554776985701 0.1686313600503352 
0.1686313600503352 0.1686313600503352 0.176853157060555 0.176853157060555 0.176853157060555 0.01778267641314689 0.01778267641314689 0.01778267641314689 0.01978688624622631 
0.01978688624622631 0.01978688624622631 0.01733146761687949 0.01733146761687949 0.01733146761687949 0.3793050368641507 0.3793050368641507 0.3793050368641507 0.3829166762983581 
0.3829166762983581 0.3829166762983581 0.4032750574544116 0.4032750574544116 0.4032750574544116 -0.4122191326693164 -0.4122191326693164 -0.4122191326693164 -0.4006374297200087 
-0.4006374297200087 -0.4006374297200087 -0.3999867611965876 -0.3999867611965876 -0.3999867611965876 -0.1639637719577762 -0.1639637719577762 -0.1639637719577762 -0.171689474937131 
-0.171689474937131 -0.171689474937131 -0.1618758064052958 -0.1618758064052958 -0.1618758064052958 0.02636647602519996 0.02636647602519996 0.02636647602519996 0.022755111204844 
0.022755111204844 0.022755111204844 0.01116901466132622 0.01116901466132622 0.01116901466132622 -0.1163301460449543 -0.1163301460449543 -0.1163301460449543 -0.1027415528306743 
-0.1027415528306743 -0.1027415528306743 -0.0938796878577331 -0.0938796878577331 -0.0938796878577331 0.4634769948657456 0.4634769948657456 0.4634769948657456 -0.1360290968335934 
-0.1360290968335934 -0.1360290968335934 -0.1459930697590483 -0.1459930697590483 -0.1459930697590483 -0.1533130421802025 -0.1533130421802025 -0.1533130421802025 0.601434811785729 
0.601434811785729 0.601434811785729 0.6086413558542556 0.6086413558542556 0.6086413558542556 0.6030188477026932 0.6030188477026932 0.6030188477026932 -0.2253940218974075 
-0.2253940218974075 -0.2253940218974075 -0.2357267410588581 -0.2357267410588581 -0.2357267410588581 -0.2535626886969683 -0.2535626886969683 -0.2535626886969683 -0.03682019163310724 
-0.03682019163310724 -0.03682019163310724 -0.02094751334320203 -0.02094751334320203 -0.02094751334320203 -0.008929611390010363 -0.008929611390010363 -0.008929611390010363 -0.156840626970051 
-0.156840626970051 -0.156840626970051 -0.140427994531051 -0.140427994531051 -0.140427994531051 -0.1324280878191756 -0.1324280878191756 -0.1324280878191756 -0.5918683629460102 
-0.5918683629460102 -0.5918683629460102 -0.6216172710250574 -0.6216172710250574 -0.6216172710250574 -0.6147135952039897 -0.6147135952039897 -0.6147135952039897 0.08470941544762511 
0.08470941544762511 0.08470941544762511 0.07413200456954296 0.07413200456954296 0.07413200456954296 0.06862286735891082 0.06862286735891082 0.06862286735891082 -0.9056053763904571 
-0.9056053763904571 -0.9056053763904571 -0.9043930299030014 -0.9043930299030014 -0.9043930299030014 -0.9139687899622131 -0.9139687899622131 -0.9139687899622131 -0.1927182978388841 
-0.1927182978388841 -0.1927182978388841 -0.2007930025934719 -0.2007930025934719 -0.2007930025934719 -0.2024518150958284 -0.2024518150958284 -0.2024518150958284 0.02732087888563181 
0.02732087888563181 0.02732087888563181 0.02227711767977564 0.02227711767977564 0.02227711767977564 0.007077050538999861 0.007077050538999861 0.007077050538999861 -0.6926644129447275 
-0.6926644129447275 -0.6926644129447275 -0.6882478259209452 -0.6882478259209452 -0.6882478259209452 -0.6819577534706297 -0.6819577534706297 -0.6819577534706297 0.2034650580764638 
0.2034650580764638 0.2034650580764638 0.2076652486629136 0.2076652486629136 0.2076652486629136 0.2030745376935746 0.2030745376935746 0.2030745376935746 0.2035014996421612 
0.2035014996421612 0.2035014996421612 0.2107769785731085 0.2107769785731085 0.2107769785731085 0.2175914916440142 0.2175914916440142 0.2175914916440142 0.5431161793778548 
0.5431161793778548 0.5431161793778548 0.5539903323104652 0.5539903323104652 0.5539903323104652 0.5544453638228449 0.5544453638228449 0.5544453638228449 0.7573161479645886 
0.7573161479645886 0.7573161479645886 0.6473774769175118 0.6473774769175118 0.6473774769175118 0.4032523593273336 0.4032523593273336 0.4032523593273336 -0.05398722136194704 
-0.05398722136194704 -0.05398722136194704 -0.04857786300228956 -0.04857786300228956 -0.04857786300228956 -0.04437319176208973 -0.04437319176208973 -0.04437319176208973 0.5893362309543224 
0.5893362309543224 0.5893362309543224 0.5919280401700974 0.5919280401700974 0.5919280401700974 0.5950536971318192 0.5950536971318192 0.5950536971318192 -0.5948851802847931 
-0.5948851802847931 -0.5948851802847931 -0.6096743122854953 -0.6096743122854953 -0.6096743122854953 -0.6173133157631581 -0.6173133157631581 -0.6173133157631581 -0.09156739260544264 
-0.09156739260544264 -0.09156739260544264 -0.08097953560766571 -0.08097953560766571 -0.08097953560766571 -0.07454774112613363 -0.07454774112613363 -0.07454774112613363 -0.06696287027627917 
-0.06696287027627917 -0.06696287027627917 -0.08166690492933043 -0.08166690492933043 -0.08166690492933043 -0.08792057400035169 -0.08792057400035169 -0.08792057400035169 -0.1640551484858992 