Title = Triangle100
FileType = Solution
Variables = q
Zone T = Triangle100
ZoneType = FETriangle
Nodes = 99072
Elements = 33024
DataPacking = Block
StrandID = 2
SolutionTime = 0.1
0.5194291339196693 0.5194291339196693 0.5194291339196693 0.5064833020103693 0.5064833020103693 0.5064833020103693 0.4994518999310018 0.4994518999310018 0.4994518999310018 -0.2717931097038158 
-0.2717931097038158 -0.2717931097038158 -0.2477752410225687 -0.2477752410225687 -0.2477752410225687 0.7547557506691717 0.7547557506691717 0.7547557506691717 0.7701786820161431 
0.7701786820161431 0.7701786820161431 -0.6195252843743577 -0.6195252843743577 -0.6195252843743577 -0.5883299677797194 -0.5883299677797194 -0.5883299677797194 0.591515042096646 
0.591515042096646 0.591515042096646 0.5821038115541914 0.5821038115541914 0.5821038115541914 -0.01767528095744146 -0.01767528095744146 -0.01767528095744146 -0.01320342357675839 
-0.01320342357675839 -0.01320342357675839 -0.5771942077386649 -0.5771942077386649 -0.5771942077386649 -0.5838936510162228 -0.5838936510162228 -0.5838936510162228 0.3736197195394731 
0.3736197195394731 0.3736197195394731 0.3501767171823638 0.3501767171823638 0.3501767171823638 -0.07281142706863772 -0.07281142706863772 -0.07281142706863772 -0.07559944730463727 
-0.07559944730463727 -0.07559944730463727 0.7952726559824947 0.7952726559824947 0.7952726559824947 0.8258349291528182 0.8258349291528182 0.8258349291528182 0.783737241604552 
0.783737241604552 0.783737241604552 0.4025157404741503 0.4025157404741503 0.4025157404741503 0.3916139322378895 0.3916139322378895 0.3916139322378895 -0.3923796267474336 
-0.3923796267474336 -0.3923796267474336 -0.2684105557559355 -0.2684105557559355 -0.2684105557559355 -0.6118620871657658 -0.6118620871657658 -0.6118620871657658 -0.5560278953434821 
-0.5560278953434821 -0.5560278953434821 -0.3324659027362251 -0.3324659027362251 -0.3324659027362251 -0.3332481739408443 -0.3332481739408443 -0.3332481739408443 -0.2385791242694199 
-0.2385791242694199 -0.2385791242694199 -0.2459612488439473 -0.2459612488439473 -0.2459612488439473 -0.256667063520807 -0.256667063520807 -0.256667063520807 0.4721148256668343 
0.4721148256668343 0.4721148256668343 0.4615527116489366 0.4615527116489366 0.4615527116489366 0.4533559430265086 0.4533559430265086 0.4533559430265086 -0.9382591089274308 
-0.9382591089274308 -0.9382591089274308 -0.9385476773151114 -0.9385476773151114 -0.9385476773151114 -0.9456117358333992 -0.9456117358333992 -0.9456117358333992 -0.02412037187152325 
-0.02412037187152325 -0.02412037187152325 -0.02134438406511209 -0.02134438406511209 -0.02134438406511209 -0.01601943270668861 -0.01601943270668861 -0.01601943270668861 0.3264340736559886 
0.3264340736559886 0.3264340736559886 0.3276116072122832 0.3276116072122832 0.3276116072122832 0.3232623786492829 0.3232623786492829 0.3232623786492829 0.2074151739155512 
0.2074151739155512 0.2074151739155512 0.1992080702763613 0.1992080702763613 0.1992080702763613 0.1896269736082771 0.1896269736082771 0.1896269736082771 0.1920678827737912 
0.1920678827737912 0.1920678827737912 0.1820961641387981 0.1820961641387981 0.1820961641387981 0.1773868925274468 0.1773868925274468 0.1773868925274468 0.7478195514883008 
0.7478195514883008 0.7478195514883008 0.7368339630404602 0.7368339630404602 0.7368339630404602 -0.729614131878529 -0.729614131878529 -0.729614131878529 -0.7615244176496274 
-0.7615244176496274 -0.7615244176496274 -0.04619619440699555 -0.04619619440699555 -0.04619619440699555 -0.04215098776628438 -0.04215098776628438 -0.04215098776628438 0.1726050022030158 
0.1726050022030158 0.1726050022030158 0.1852704550285552 0.1852704550285552 0.1852704550285552 0.3522256504081059 0.3522256504081059 0.3522256504081059 0.342696300529883 
0.342696300529883 0.342696300529883 0.5775818953059595 0.5775818953059595 0.5775818953059595 0.5768063085538129 0.5768063085538129 0.5768063085538129 -0.8284238213906059 
-0.8284238213906059 -0.8284238213906059 -0.8214923378553447 -0.8214923378553447 -0.8214923378553447 0.5150223413517608 0.5150223413517608 0.5150223413517608 0.483202113307963 
0.483202113307963 0.483202113307963 -0.576778717844967 -0.576778717844967 -0.576778717844967 -0.5849103528294048 -0.5849103528294048 -0.5849103528294048 -0.4651563578378431 
-0.4651563578378431 -0.4651563578378431 -0.430458108110191 -0.430458108110191 -0.430458108110191 0.009827894538562226 0.009827894538562226 0.009827894538562226 0.06156787824575961 
0.06156787824575961 0.06156787824575961 -0.4991258296300887 -0.4991258296300887 -0.4991258296300887 -0.5126423751245609 -0.5126423751245609 -0.5126423751245609 -0.07491468778341986 
-0.07491468778341986 -0.07491468778341986 -0.06426086960558416 -0.06426086960558416 -0.06426086960558416 -0.9469371018307903 -0.9469371018307903 -0.9469371018307903 -0.9424065267148618 
-0.9424065267148618 -0.9424065267148618 -0.0633480055723898 -0.0633480055723898 -0.0633480055723898 -0.07001248823190878 -0.07001248823190878 -0.07001248823190878 -0.1104127849404664 
-0.1104127849404664 -0.1104127849404664 -0.1019207057391157 -0.1019207057391157 -0.1019207057391157 0.8117041895517589 0.8117041895517589 0.8117041895517589 0.81798510729042 
0.81798510729042 0.81798510729042 -0.2160698187026738 -0.2160698187026738 -0.2160698187026738 -0.1347429135758188 -0.1347429135758188 -0.1347429135758188 0.5915997422180163 
0.5915997422180163 0.5915997422180163 0.586126079536107 0.586126079536107 0.586126079536107 -0.238547280089746 -0.238547280089746 -0.238547280089746 -0.2026472706389057 
-0.2026472706389057 -0.2026472706389057 0.2896588830943336 0.2896588830943336 0.2896588830943336 0.6393316057480785 0.6393316057480785 0.6393316057480785 0.6203282065272417 
0.6203282065272417 0.6203282065272417 -0.05506630304346536 -0.05506630304346536 -0.05506630304346536 -0.06202371711320182 -0.06202371711320182 -0.06202371711320182 -0.3238587457151537 
-0.3238587457151537 -0.3238587457151537 -0.3582685209595676 -0.3582685209595676 -0.3582685209595676 0.7648535000927732 0.7648535000927732 0.7648535000927732 0.7444918972589409 
0.7444918972589409 0.7444918972589409 -0.6062604288408329 -0.6062604288408329 -0.6062604288408329 -0.595931392630469 -0.595931392630469 -0.595931392630469 -0.9548955850008267 
-0.9548955850008267 -0.9548955850008267 -0.9446718436726044 -0.9446718436726044 -0.9446718436726044 0.7465383496053316 0.7465383496053316 0.7465383496053316 0.7323190542623609 
0.7323190542623609 0.7323190542623609 0.5498639097925465 0.5498639097925465 0.5498639097925465 0.5305715373323521 0.5305715373323521 0.5305715373323521 0.5811856468968301 
0.5811856468968301 0.5811856468968301 0.5630970566391968 0.5630970566391968 0.5630970566391968 0.3608318108030369 0.3608318108030369 0.3608318108030369 0.3719036612987571 
0.3719036612987571 0.3719036612987571 -0.2861593564976581 -0.2861593564976581 -0.2861593564976581 -0.2817971322179909 -0.2817971322179909 -0.2817971322179909 0.03415869221693203 
0.03415869221693203 0.03415869221693203 0.04330306679158125 0.04330306679158125 0.04330306679158125 -0.1408984531790439 -0.1408984531790439 -0.1408984531790439 -0.1136039573105126 
-0.1136039573105126 -0.1136039573105126 -0.4667702817681951 -0.4667702817681951 -0.4667702817681951 -0.494861640283125 -0.494861640283125 -0.494861640283125 0.07413920377205489 
0.07413920377205489 0.07413920377205489 0.1078670510392644 0.1078670510392644 0.1078670510392644 0.1572755467310439 0.1572755467310439 0.1572755467310439 0.1402434695212102 
0.1402434695212102 0.1402434695212102 0.5715866896666244 0.5715866896666244 0.5715866896666244 0.5534958111600299 0.5534958111600299 0.5534958111600299 0.5399109893428184 
0.5399109893428184 0.5399109893428184 -0.900152771717203 -0.900152771717203 -0.900152771717203 -0.8925963918731834 -0.8925963918731834 -0.8925963918731834 -0.8737397694135716 
-0.8737397694135716 -0.8737397694135716 -0.9742200298864058 -0.9742200298864058 -0.9742200298864058 -0.9713167509853209 -0.9713167509853209 -0.9713167509853209 -0.9693539022500108 
-0.9693539022500108 -0.9693539022500108 0.2761581266741762 0.2761581266741762 0.2761581266741762 0.2671314181775736 0.2671314181775736 0.2671314181775736 0.2588271545307634 
0.2588271545307634 0.2588271545307634 -0.5452034166079081 -0.5452034166079081 -0.5452034166079081 -0.5581004248160851 -0.5581004248160851 -0.5581004248160851 -0.5686639074985567 
-0.5686639074985567 -0.5686639074985567 -0.02991390203545715 -0.02991390203545715 -0.02991390203545715 -0.02211018419506035 -0.02211018419506035 -0.02211018419506035 0.4721031573350064 
0.4721031573350064 0.4721031573350064 0.4640219076470278 0.4640219076470278 0.4640219076470278 0.446992470962761 0.446992470962761 0.446992470962761 -0.6409658090026045 
-0.6409658090026045 -0.6409658090026045 -0.6654775831610952 -0.6654775831610952 -0.6654775831610952 -0.6659290515507127 -0.6659290515507127 -0.6659290515507127 -0.8058185432700542 
-0.8058185432700542 -0.8058185432700542 -0.7913892411416544 -0.7913892411416544 -0.7913892411416544 -0.7883863041664421 -0.7883863041664421 -0.7883863041664421 -0.06406319309115474 
-0.06406319309115474 -0.06406319309115474 -0.08671416178827203 -0.08671416178827203 -0.08671416178827203 -0.09495395691139361 -0.09495395691139361 -0.09495395691139361 0.3298722492072758 
0.3298722492072758 0.3298722492072758 0.3287103954267084 0.3287103954267084 0.3287103954267084 0.3262455531376247 0.3262455531376247 0.3262455531376247 0.5740821332214752 
0.5740821332214752 0.5740821332214752 0.5578894632278133 0.5578894632278133 0.5578894632278133 0.5495201777043381 0.5495201777043381 0.5495201777043381 0.3079331921107234 
0.3079331921107234 0.3079331921107234 0.3861887164479104 0.3861887164479104 0.3861887164479104 0.4233154685108809 0.4233154685108809 0.4233154685108809 0.515351847940245 
0.515351847940245 0.515351847940245 0.4992459356132224 0.4992459356132224 0.4992459356132224 -0.719290565747148 -0.719290565747148 -0.719290565747148 -0.7448630212371282 
-0.7448630212371282 -0.7448630212371282 -0.7620273485761323 -0.7620273485761323 -0.7620273485761323 -0.554338877406515 -0.554338877406515 -0.554338877406515 -0.5336996076401512 
-0.5336996076401512 -0.5336996076401512 0.5847737502548859 0.5847737502548859 0.5847737502548859 0.5930271061020117 0.5930271061020117 0.5930271061020117 0.6276967002656171 
0.6276967002656171 0.6276967002656171 0.6610458946560247 0.6610458946560247 0.6610458946560247 -0.6597977308079233 -0.6597977308079233 -0.6597977308079233 -0.6719036967328865 
-0.6719036967328865 -0.6719036967328865 0.4297340489821153 0.4297340489821153 0.4297340489821153 0.4161158261206655 0.4161158261206655 0.4161158261206655 0.7507675188183908 
0.7507675188183908 0.7507675188183908 0.765836300393987 0.765836300393987 0.765836300393987 -0.1790426170547371 -0.1790426170547371 -0.1790426170547371 -0.1707555780369118 
-0.1707555780369118 -0.1707555780369118 0.6495364826868874 0.6495364826868874 0.6495364826868874 0.6396057130589694 0.6396057130589694 0.6396057130589694 0.02719192205275625 
0.02719192205275625 0.02719192205275625 0.01963215272461814 0.01963215272461814 0.01963215272461814 -0.1770819552214987 -0.1770819552214987 -0.1770819552214987 -0.164893662210378 
-0.164893662210378 -0.164893662210378 0.2729019445017813 0.2729019445017813 0.2729019445017813 0.2759179060143195 0.2759179060143195 0.2759179060143195 0.5497258038641206 
0.5497258038641206 0.5497258038641206 0.547367240438116 0.547367240438116 0.547367240438116 -0.4819993316756123 -0.4819993316756123 -0.4819993316756123 -0.4651299326227142 
-0.4651299326227142 -0.4651299326227142 0.0725671775445236 0.0725671775445236 0.0725671775445236 0.06083783975742657 0.06083783975742657 0.06083783975742657 0.7819803407678553 
0.7819803407678553 0.7819803407678553 0.7725467522845283 0.7725467522845283 0.7725467522845283 -0.4429251968391454 -0.4429251968391454 -0.4429251968391454 -0.4532182535019998 
-0.4532182535019998 -0.4532182535019998 -0.4561031566066577 -0.4561031566066577 -0.4561031566066577 -0.4640340568682657 -0.4640340568682657 -0.4640340568682657 0.6355995166329078 
0.6355995166329078 0.6355995166329078 0.6264797037819757 0.6264797037819757 0.6264797037819757 -0.1530400224910844 -0.1530400224910844 -0.1530400224910844 -0.1525375803816794 
-0.1525375803816794 -0.1525375803816794 -0.2504216009803388 -0.2504216009803388 -0.2504216009803388 -0.2476367982878076 -0.2476367982878076 -0.2476367982878076 0.5949422917839171 
0.5949422917839171 0.5949422917839171 0.5928942527779251 0.5928942527779251 0.5928942527779251 -0.1148492362827006 -0.1148492362827006 -0.1148492362827006 -0.1100692011194415 
-0.1100692011194415 -0.1100692011194415 0.8383893304604744 0.8383893304604744 0.8383893304604744 0.8323944218544841 0.8323944218544841 0.8323944218544841 -0.02928439220296408 
-0.02928439220296408 -0.02928439220296408 -0.03442243863973803 -0.03442243863973803 -0.03442243863973803 -0.3960039163137377 -0.3960039163137377 -0.3960039163137377 -0.3799176799641904 
-0.3799176799641904 -0.3799176799641904 -0.9411570880987831 -0.9411570880987831 -0.9411570880987831 -0.9304449239783016 -0.9304449239783016 -0.9304449239783016 0.008804559706756246 
0.008804559706756246 0.008804559706756246 0.01651895445291136 0.01651895445291136 0.01651895445291136 -0.07199889938526177 -0.07199889938526177 -0.07199889938526177 -0.08183774092829983 
-0.08183774092829983 -0.08183774092829983 0.5875977675354578 0.5875977675354578 0.5875977675354578 0.5340361729447392 0.5340361729447392 0.5340361729447392 -0.9446061326139372 
-0.9446061326139372 -0.9446061326139372 -0.9358277982756775 -0.9358277982756775 -0.9358277982756775 0.5148977254006958 0.5148977254006958 0.5148977254006958 0.5013420022980041 
0.5013420022980041 0.5013420022980041 0.5242914902934135 0.5242914902934135 0.5242914902934135 0.4615554158914574 0.4615554158914574 0.4615554158914574 0.85783943288704 
0.85783943288704 0.85783943288704 0.8535624762119198 0.8535624762119198 0.8535624762119198 0.7651847547156589 0.7651847547156589 0.7651847547156589 0.7565491836206137 
0.7565491836206137 0.7565491836206137 -0.9438732443192779 -0.9438732443192779 -0.9438732443192779 0.3809679446788104 0.3809679446788104 0.3809679446788104 0.3460304785372537 
0.3460304785372537 0.3460304785372537 -0.7855881013624799 -0.7855881013624799 -0.7855881013624799 -0.7980827642819303 -0.7980827642819303 -0.7980827642819303 -0.8206522803011419 
-0.8206522803011419 -0.8206522803011419 -0.8135451963244 -0.8135451963244 -0.8135451963244 0.1080970483637138 0.1080970483637138 0.1080970483637138 0.1107948157973127 
0.1107948157973127 0.1107948157973127 -0.2191509607262399 -0.2191509607262399 -0.2191509607262399 -0.2163625035008478 -0.2163625035008478 -0.2163625035008478 -0.1313677533751068 
-0.1313677533751068 -0.1313677533751068 -0.1320066246546206 -0.1320066246546206 -0.1320066246546206 0.2788399445747141 0.2788399445747141 0.2788399445747141 0.308156610484686 
0.308156610484686 0.308156610484686 -0.5502794214213859 -0.5502794214213859 -0.5502794214213859 -0.5341737846355087 -0.5341737846355087 -0.5341737846355087 0.5849452086632141 
0.5849452086632141 0.5849452086632141 0.5907912023339766 0.5907912023339766 0.5907912023339766 -0.5048144503992663 -0.5048144503992663 -0.5048144503992663 -0.4948459741172778 
-0.4948459741172778 -0.4948459741172778 -0.02333755141758773 -0.02333755141758773 -0.02333755141758773 0.1339510042438501 0.1339510042438501 0.1339510042438501 0.1244942163638277 
0.1244942163638277 0.1244942163638277 0.2311959030939156 0.2311959030939156 0.2311959030939156 0.2287939154447318 0.2287939154447318 0.2287939154447318 -0.4231784520352211 
-0.4231784520352211 -0.4231784520352211 -0.4677471716406867 -0.4677471716406867 -0.4677471716406867 -0.2186237121131486 -0.2186237121131486 -0.2186237121131486 -0.2444067824069961 
-0.2444067824069961 -0.2444067824069961 0.5503492109720249 0.5503492109720249 0.5503492109720249 0.5667079263474724 0.5667079263474724 0.5667079263474724 0.2000565413675473 
0.2000565413675473 0.2000565413675473 0.5480036583932243 0.5480036583932243 0.5480036583932243 0.5948837599824346 0.5948837599824346 0.5948837599824346 -0.3764903140473319 
-0.3764903140473319 -0.3764903140473319 -0.3790428006239972 -0.3790428006239972 -0.3790428006239972 -0.5864763748612243 -0.5864763748612243 -0.5864763748612243 -0.5775217500949034 
-0.5775217500949034 -0.5775217500949034 -0.8106531154723605 -0.8106531154723605 -0.8106531154723605 -0.8176655033243133 -0.8176655033243133 -0.8176655033243133 -0.1953648276765052 
-0.1953648276765052 -0.1953648276765052 -0.1873561488382083 -0.1873561488382083 -0.1873561488382083 0.5577114336969369 0.5577114336969369 0.5577114336969369 0.5463273346348626 
0.5463273346348626 0.5463273346348626 0.04401261396433605 0.04401261396433605 0.04401261396433605 0.07921729726016891 0.07921729726016891 0.07921729726016891 0.2385044099603108 
0.2385044099603108 0.2385044099603108 0.2300570432542104 0.2300570432542104 0.2300570432542104 0.5053338722181776 0.5053338722181776 0.5053338722181776 0.4763065498900475 
0.4763065498900475 0.4763065498900475 0.5006879211153989 0.5006879211153989 0.5006879211153989 0.5286303506252723 0.5286303506252723 0.5286303506252723 0.1754126962578013 
0.1754126962578013 0.1754126962578013 0.1659866401894752 0.1659866401894752 0.1659866401894752 -0.3709919432491885 -0.3709919432491885 -0.3709919432491885 -0.3818907035225861 
-0.3818907035225861 -0.3818907035225861 0.3425619898700054 0.3425619898700054 0.3425619898700054 0.3507582870340238 0.3507582870340238 0.3507582870340238 -0.07185792665170405 
-0.07185792665170405 -0.07185792665170405 -0.07579772982097466 -0.07579772982097466 -0.07579772982097466 -0.1160139332777173 -0.1160139332777173 -0.1160139332777173 0.01223960875572683 
0.01223960875572683 0.01223960875572683 -0.3699046708665332 -0.3699046708665332 -0.3699046708665332 -0.5864664073928683 -0.5864664073928683 -0.5864664073928683 -0.5609079390115834 
-0.5609079390115834 -0.5609079390115834 -0.08424549309564811 -0.08424549309564811 -0.08424549309564811 -0.06507633418458651 -0.06507633418458651 -0.06507633418458651 0.7342102770962675 
0.7342102770962675 0.7342102770962675 0.7166258254206486 0.7166258254206486 0.7166258254206486 -0.06960018451942691 -0.06960018451942691 -0.06960018451942691 -0.06882249185251513 
-0.06882249185251513 -0.06882249185251513 0.6706955367818894 0.6706955367818894 0.6706955367818894 0.6403994884025765 0.6403994884025765 0.6403994884025765 -0.07220738648591074 
-0.07220738648591074 -0.07220738648591074 -0.09776738339803329 -0.09776738339803329 -0.09776738339803329 -0.4370058599523796 -0.4370058599523796 -0.4370058599523796 -0.415576943947274 
-0.415576943947274 -0.415576943947274 -0.3127282634214356 -0.3127282634214356 -0.3127282634214356 -0.2133426965776886 -0.2133426965776886 -0.2133426965776886 -0.9402027259061941 
-0.9402027259061941 -0.9402027259061941 -0.92722684220151 -0.92722684220151 -0.92722684220151 -0.4396871278903478 -0.4396871278903478 -0.4396871278903478 -0.4643522131693723 
-0.4643522131693723 -0.4643522131693723 0.3219919837307337 0.3219919837307337 0.3219919837307337 0.3617013834253154 0.3617013834253154 0.3617013834253154 -0.07715287679435362 
-0.07715287679435362 -0.07715287679435362 0.1013769911476943 0.1013769911476943 0.1013769911476943 0.3524538322371218 0.3524538322371218 0.3524538322371218 0.363788073104296 
0.363788073104296 0.363788073104296 -0.01911211596760394 -0.01911211596760394 -0.01911211596760394 -0.07904539119377355 -0.07904539119377355 -0.07904539119377355 0.423855789096749 
0.423855789096749 0.423855789096749 0.4066927999055515 0.4066927999055515 0.4066927999055515 0.05471039796506921 0.05471039796506921 0.05471039796506921 0.03684629191826978 
0.03684629191826978 0.03684629191826978 -0.2695822612884848 -0.2695822612884848 -0.2695822612884848 0.122583561786555 0.122583561786555 0.122583561786555 0.1161180390964867 
0.1161180390964867 0.1161180390964867 -0.0522376959628395 -0.0522376959628395 -0.0522376959628395 -0.03874661183831678 -0.03874661183831678 -0.03874661183831678 -0.6045398806756658 
-0.6045398806756658 -0.6045398806756658 -0.5851489362233933 -0.5851489362233933 -0.5851489362233933 -0.5217354453656073 -0.5217354453656073 -0.5217354453656073 -0.4763505861068991 
-0.4763505861068991 -0.4763505861068991 -0.2374763013222793 -0.2374763013222793 -0.2374763013222793 -0.2364391562766351 -0.2364391562766351 -0.2364391562766351 -0.05708656513055388 
-0.05708656513055388 -0.05708656513055388 -0.05792512927500328 -0.05792512927500328 -0.05792512927500328 0.03698288581463709 0.03698288581463709 0.03698288581463709 0.05620091162337582 
0.05620091162337582 0.05620091162337582 0.2663901201228074 0.2663901201228074 0.2663901201228074 0.2707972879854874 0.2707972879854874 0.2707972879854874 -0.7913922562593992 
-0.7913922562593992 -0.7913922562593992 -0.7725989506243667 -0.7725989506243667 -0.7725989506243667 -0.323377160058216 -0.323377160058216 -0.323377160058216 -0.3159833291824361 
-0.3159833291824361 -0.3159833291824361 -0.2379154894355396 -0.2379154894355396 -0.2379154894355396 -0.2265155637795137 -0.2265155637795137 -0.2265155637795137 0.7411202851887514 
0.7411202851887514 0.7411202851887514 0.7026315425352765 0.7026315425352765 0.7026315425352765 0.1227659225497747 0.1227659225497747 0.1227659225497747 0.1873667436467182 
0.1873667436467182 0.1873667436467182 0.5549770439389129 0.5549770439389129 0.5549770439389129 0.5409105528360962 0.5409105528360962 0.5409105528360962 0.08521021137330875 
0.08521021137330875 0.08521021137330875 0.106022552962357 0.106022552962357 0.106022552962357 -0.6011322684635956 -0.6011322684635956 -0.6011322684635956 -0.5659378281527441 
-0.5659378281527441 -0.5659378281527441 -0.8335392218287755 -0.8335392218287755 -0.8335392218287755 -0.8547206880137261 -0.8547206880137261 -0.8547206880137261 0.08144596625603756 
0.08144596625603756 0.08144596625603756 0.07959732259718533 0.07959732259718533 0.07959732259718533 -0.3979452970212332 -0.3979452970212332 -0.3979452970212332 -0.4196710250216097 
-0.4196710250216097 -0.4196710250216097 -0.1334793770954516 -0.1334793770954516 -0.1334793770954516 -0.07542261495088699 -0.07542261495088699 -0.07542261495088699 0.8867468019247027 
0.8867468019247027 0.8867468019247027 0.8951206069169674 0.8951206069169674 0.8951206069169674 0.6209732159099635 0.6209732159099635 0.6209732159099635 0.603331715862535 
0.603331715862535 0.603331715862535 -0.6960368138274875 -0.6960368138274875 -0.6960368138274875 -0.7216959848672468 -0.7216959848672468 -0.7216959848672468 -0.02889517551492295 
-0.02889517551492295 -0.02889517551492295 -0.05324232237810389 -0.05324232237810389 -0.05324232237810389 0.5246204567750966 0.5246204567750966 0.5246204567750966 0.5141692100615609 
0.5141692100615609 0.5141692100615609 -0.3200433456213744 -0.3200433456213744 -0.3200433456213744 -0.339315316823259 -0.339315316823259 -0.339315316823259 0.6396090586826777 
0.6396090586826777 0.6396090586826777 0.6299724529249134 0.6299724529249134 0.6299724529249134 -0.009279966659593115 -0.009279966659593115 -0.009279966659593115 -0.01057017773315617 
-0.01057017773315617 -0.01057017773315617 0.2561333286291707 0.2561333286291707 0.2561333286291707 0.2384169520391604 0.2384169520391604 0.2384169520391604 0.9466872204943733 
0.9466872204943733 0.9466872204943733 0.9318787860326974 0.9318787860326974 0.9318787860326974 -0.4217615858170887 -0.4217615858170887 -0.4217615858170887 -0.4774192543694707 
-0.4774192543694707 -0.4774192543694707 -0.3895388652023304 -0.3895388652023304 -0.3895388652023304 -0.3880819832956322 -0.3880819832956322 -0.3880819832956322 -0.5209440730616286 
-0.5209440730616286 -0.5209440730616286 -0.6072376098765955 -0.6072376098765955 -0.6072376098765955 -0.3727173631906768 -0.3727173631906768 -0.3727173631906768 -0.404577624792821 
-0.404577624792821 -0.404577624792821 -0.3469445278591062 -0.3469445278591062 -0.3469445278591062 -0.4497723076299035 -0.4497723076299035 -0.4497723076299035 0.06026607773486001 
0.06026607773486001 0.06026607773486001 0.06801332649140056 0.06801332649140056 0.06801332649140056 0.1483259632043825 0.1483259632043825 0.1483259632043825 0.1232976850586301 
0.1232976850586301 0.1232976850586301 -0.3392913983099756 -0.3392913983099756 -0.3392913983099756 -0.3905804253654402 -0.3905804253654402 -0.3905804253654402 -0.3521045456782451 
-0.3521045456782451 -0.3521045456782451 -0.4462004097956904 -0.4462004097956904 -0.4462004097956904 0.5945900074734285 0.5945900074734285 0.5945900074734285 0.6157003949437263 
0.6157003949437263 0.6157003949437263 0.5476703414628877 0.5476703414628877 0.5476703414628877 0.4600181986992834 0.4600181986992834 0.4600181986992834 0.485696225473455 
0.485696225473455 0.485696225473455 0.4689750453028295 0.4689750453028295 0.4689750453028295 -0.04561256707551223 -0.04561256707551223 -0.04561256707551223 -0.07393102356344891 
-0.07393102356344891 -0.07393102356344891 0.245309821485267 0.245309821485267 0.245309821485267 0.2290896990624449 0.2290896990624449 0.2290896990624449 0.2306712002248126 
0.2306712002248126 0.2306712002248126 0.2421348181932227 0.2421348181932227 0.2421348181932227 0.01883109216070963 0.01883109216070963 0.01883109216070963 0.02187159413129698 
0.02187159413129698 0.02187159413129698 0.01888330314037646 0.01888330314037646 0.01888330314037646 0.2271329146030177 0.2271329146030177 0.2271329146030177 0.2159752861836974 
0.2159752861836974 0.2159752861836974 0.2604847582594379 0.2604847582594379 0.2604847582594379 -0.5652077480459342 -0.5652077480459342 -0.5652077480459342 -0.5496545639209872 
-0.5496545639209872 -0.5496545639209872 -0.5480575036880302 -0.5480575036880302 -0.5480575036880302 -0.2250548830528313 -0.2250548830528313 -0.2250548830528313 -0.2357366008687595 
-0.2357366008687595 -0.2357366008687595 -0.2219253197243607 -0.2219253197243607 -0.2219253197243607 0.02338318131406384 0.02338318131406384 0.02338318131406384 0.01927615319141717 
0.01927615319141717 0.01927615319141717 0.009209649653400612 0.009209649653400612 0.009209649653400612 -0.1536414516048644 -0.1536414516048644 -0.1536414516048644 -0.1347472260781031 
-0.1347472260781031 -0.1347472260781031 -0.1229749707612505 -0.1229749707612505 -0.1229749707612505 0.6377838552657721 0.6377838552657721 0.6377838552657721 -0.1793474865351878 
-0.1793474865351878 -0.1793474865351878 -0.1926505059982258 -0.1926505059982258 -0.1926505059982258 -0.201691579825688 -0.201691579825688 -0.201691579825688 0.742627534243955 
0.742627534243955 0.742627534243955 0.7461749821723238 0.7461749821723238 0.7461749821723238 0.7282140900973336 0.7282140900973336 0.7282140900973336 -0.2868606223908771 
-0.2868606223908771 -0.2868606223908771 -0.2976023508203438 -0.2976023508203438 -0.2976023508203438 -0.3219551477362308 -0.3219551477362308 -0.3219551477362308 -0.04804032060129268 
-0.04804032060129268 -0.04804032060129268 -0.0263443142456149 -0.0263443142456149 -0.0263443142456149 -0.01155846425985553 -0.01155846425985553 -0.01155846425985553 -0.2068964387728947 
-0.2068964387728947 -0.2068964387728947 -0.1846881633624504 -0.1846881633624504 -0.1846881633624504 -0.1747642661638645 -0.1747642661638645 -0.1747642661638645 -0.7529429563956943 
-0.7529429563956943 -0.7529429563956943 -0.7860032246234325 -0.7860032246234325 -0.7860032246234325 -0.7685652299180186 -0.7685652299180186 -0.7685652299180186 0.1100692130366851 
0.1100692130366851 0.1100692130366851 0.09581943366087638 0.09581943366087638 0.09581943366087638 0.08817535674553909 0.08817535674553909 0.08817535674553909 -0.3827992376038896 
-0.3827992376038896 -0.3827992376038896 -0.4229306011004275 -0.4229306011004275 -0.4229306011004275 -0.4832566540183914 -0.4832566540183914 -0.4832566540183914 -0.2494594721498962 
-0.2494594721498962 -0.2494594721498962 -0.2585508375338768 -0.2585508375338768 -0.2585508375338768 -0.2594164359262597 -0.2594164359262597 -0.2594164359262597 0.03632005728992703 
0.03632005728992703 0.03632005728992703 0.02728260005619859 0.02728260005619859 0.02728260005619859 0.009268890013584941 0.009268890013584941 0.009268890013584941 -0.8983393622657823 
-0.8983393622657823 -0.8983393622657823 -0.8963562938130935 -0.8963562938130935 -0.8963562938130935 -0.8908357198101504 -0.8908357198101504 -0.8908357198101504 0.2399954698019255 
0.2399954698019255 0.2399954698019255 0.2482327032553694 0.2482327032553694 0.2482327032553694 0.2442333022663137 0.2442333022663137 0.2442333022663137 0.275197655741221 
0.275197655741221 0.275197655741221 0.2855381353933358 0.2855381353933358 0.2855381353933358 0.2950070995140182 0.2950070995140182 0.2950070995140182 0.7410636236891596 
0.7410636236891596 0.7410636236891596 0.7549844008039244 0.7549844008039244 0.7549844008039244 0.7564004374831886 0.7564004374831886 0.7564004374831886 0.001899489027636926 
0.001899489027636926 0.001899489027636926 -0.01419612349571246 -0.01419612349571246 -0.01419612349571246 -0.02694250718971633 -0.02694250718971633 -0.02694250718971633 -0.06743479861831814 
-0.06743479861831814 -0.06743479861831814 -0.05989956402129904 -0.05989956402129904 -0.05989956402129904 -0.05430217227873996 -0.05430217227873996 -0.05430217227873996 0.5577456159118035 
0.5577456159118035 0.5577456159118035 0.5491374911867439 0.5491374911867439 0.5491374911867439 0.5356559081248468 0.5356559081248468 0.5356559081248468 -0.7890727557253726 
-0.7890727557253726 -0.7890727557253726 -0.8073039717193846 -0.8073039717193846 -0.8073039717193846 -0.815016311033457 -0.815016311033457 -0.815016311033457 -0.1195284474241305 
-0.1195284474241305 -0.1195284474241305 -0.1062382269808684 -0.1062382269808684 -0.1062382269808684 -0.09745432057881989 -0.09745432057881989 -0.09745432057881989 -0.08585829394970097 
-0.08585829394970097 -0.08585829394970097 -0.1045758972280529 -0.1045758972280529 -0.1045758972280529 -0.1124285513391234 -0.1124285513391234 -0.1124285513391234 -0.2179068033020835 