Title = Triangle100
FileType = Solution
Variables = q
Zone T = Triangle100
ZoneType = FETriangle
Nodes = 99072
Elements = 33024
DataPacking = Block
StrandID = 14
SolutionTime = 1.3
0.1009282222741484 0.1009282222741484 0.1009282222741484 0.09692559666497755 0.09692559666497755 0.09692559666497755 0.09627329954111924 0.09627329954111924 0.09627329954111924 0.08439011822756176 
0.08439011822756176 0.08439011822756176 0.2102647764261798 0.2102647764261798 0.2102647764261798 0.170733017428755 0.170733017428755 0.170733017428755 0.1755075887628724 
0.1755075887628724 0.1755075887628724 -0.2412706619559989 -0.2412706619559989 -0.2412706619559989 -0.2386899717464709 -0.2386899717464709 -0.2386899717464709 0.4475179057170409 
0.4475179057170409 0.4475179057170409 0.4458175106556915 0.4458175106556915 0.4458175106556915 0.325264930274943 0.325264930274943 0.325264930274943 0.3244243736280444 
0.3244243736280444 0.3244243736280444 -0.1157456002479085 -0.1157456002479085 -0.1157456002479085 -0.1177875286472154 -0.1177875286472154 -0.1177875286472154 -0.1871288902980618 
-0.1871288902980618 -0.1871288902980618 -0.2303544527539416 -0.2303544527539416 -0.2303544527539416 0.3182379407023612 0.3182379407023612 0.3182379407023612 0.3166654581168256 
0.3166654581168256 0.3166654581168256 0.3390635750579288 0.3390635750579288 0.3390635750579288 0.3554314732939892 0.3554314732939892 0.3554314732939892 0.2484720628045102 
0.2484720628045102 0.2484720628045102 0.4140763267112122 0.4140763267112122 0.4140763267112122 0.4121563263435806 0.4121563263435806 0.4121563263435806 -0.2193115750372255 
-0.2193115750372255 -0.2193115750372255 -0.2195379885088444 -0.2195379885088444 -0.2195379885088444 -0.2990771234582016 -0.2990771234582016 -0.2990771234582016 -0.3123755305716549 
-0.3123755305716549 -0.3123755305716549 0.161958476385117 0.161958476385117 0.161958476385117 0.05906526867852702 0.05906526867852702 0.05906526867852702 -0.3836835744921086 
-0.3836835744921086 -0.3836835744921086 -0.3851245631505403 -0.3851245631505403 -0.3851245631505403 -0.3871555828158459 -0.3871555828158459 -0.3871555828158459 0.426151921942673 
0.426151921942673 0.426151921942673 0.424283050594904 0.424283050594904 0.424283050594904 0.4228337118889774 0.4228337118889774 0.4228337118889774 -0.539014497170709 
-0.539014497170709 -0.539014497170709 -0.5374714314528264 -0.5374714314528264 -0.5374714314528264 -0.543479461848531 -0.543479461848531 -0.543479461848531 0.3185356885370814 
0.3185356885370814 0.3185356885370814 0.3207193868612234 0.3207193868612234 0.3207193868612234 0.3227626350095326 0.3227626350095326 0.3227626350095326 -0.2516844111413564 
-0.2516844111413564 -0.2516844111413564 -0.2499135142905559 -0.2499135142905559 -0.2499135142905559 -0.2495424945202126 -0.2495424945202126 -0.2495424945202126 0.04053898456516314 
0.04053898456516314 0.04053898456516314 0.03917009010646669 0.03917009010646669 0.03917009010646669 0.0372478308020749 0.0372478308020749 0.0372478308020749 0.3747774546251257 
0.3747774546251257 0.3747774546251257 0.3730960155445898 0.3730960155445898 0.3730960155445898 0.37343672392952 0.37343672392952 0.37343672392952 0.4764761735964048 
0.4764761735964048 0.4764761735964048 0.4741742131470604 0.4741742131470604 0.4741742131470604 -0.5672774991009339 -0.5672774991009339 -0.5672774991009339 -0.5644194732313259 
-0.5644194732313259 -0.5644194732313259 -0.3387372564213131 -0.3387372564213131 -0.3387372564213131 -0.3375731385369845 -0.3375731385369845 -0.3375731385369845 0.2323445051197017 
0.2323445051197017 0.2323445051197017 0.2264358290671452 0.2264358290671452 0.2264358290671452 -0.2382150127606135 -0.2382150127606135 -0.2382150127606135 -0.2441209338488848 
-0.2441209338488848 -0.2441209338488848 0.1124921065652665 0.1124921065652665 0.1124921065652665 0.1122495795730629 0.1122495795730629 0.1122495795730629 -0.4956568502741006 
-0.4956568502741006 -0.4956568502741006 -0.4939960297359421 -0.4939960297359421 -0.4939960297359421 0.1251599470191228 0.1251599470191228 0.1251599470191228 0.07908335492742406 
0.07908335492742406 0.07908335492742406 -0.1113121480046016 -0.1113121480046016 -0.1113121480046016 -0.1128567158741746 -0.1128567158741746 -0.1128567158741746 -0.2402354621571463 
-0.2402354621571463 -0.2402354621571463 -0.2319363944152904 -0.2319363944152904 -0.2319363944152904 0.2318663952364276 0.2318663952364276 0.2318663952364276 0.2300467351533158 
0.2300467351533158 0.2300467351533158 -0.09778281237330262 -0.09778281237330262 -0.09778281237330262 -0.101173897626776 -0.101173897626776 -0.101173897626776 -0.3510076029956365 
-0.3510076029956365 -0.3510076029956365 -0.3492797921713747 -0.3492797921713747 -0.3492797921713747 -0.5253811907651273 -0.5253811907651273 -0.5253811907651273 -0.5237113295136064 
-0.5237113295136064 -0.5237113295136064 -0.3525269508843221 -0.3525269508843221 -0.3525269508843221 -0.3538347421657014 -0.3538347421657014 -0.3538347421657014 -0.0215444049303832 
-0.0215444049303832 -0.0215444049303832 -0.01897210399860981 -0.01897210399860981 -0.01897210399860981 0.357793299501573 0.357793299501573 0.357793299501573 0.3450910522636419 
0.3450910522636419 0.3450910522636419 -0.2142130188659138 -0.2142130188659138 -0.2142130188659138 -0.2180798209365946 -0.2180798209365946 -0.2180798209365946 0.1205513570737669 
0.1205513570737669 0.1205513570737669 0.1187412186752183 0.1187412186752183 0.1187412186752183 0.2092067163051434 0.2092067163051434 0.2092067163051434 0.267579985529095 
0.267579985529095 0.267579985529095 0.3928871549411127 0.3928871549411127 0.3928871549411127 0.4562829271915654 0.4562829271915654 0.4562829271915654 0.4527301635700391 
0.4527301635700391 0.4527301635700391 0.3215769162817371 0.3215769162817371 0.3215769162817371 0.3174936642471878 0.3174936642471878 0.3174936642471878 -0.06463610407312259 
-0.06463610407312259 -0.06463610407312259 -0.07093156240552413 -0.07093156240552413 -0.07093156240552413 0.4800709564925771 0.4800709564925771 0.4800709564925771 0.4762329707529287 
0.4762329707529287 0.4762329707529287 -0.125621706208311 -0.125621706208311 -0.125621706208311 -0.1218717586268616 -0.1218717586268616 -0.1218717586268616 -0.5481582059653994 
-0.5481582059653994 -0.5481582059653994 -0.5492779523972462 -0.5492779523972462 -0.5492779523972462 0.4762555165931154 0.4762555165931154 0.4762555165931154 0.4735154938495417 
0.4735154938495417 0.4735154938495417 0.1059326055120119 0.1059326055120119 0.1059326055120119 0.1017898781283873 0.1017898781283873 0.1017898781283873 0.4404093950847008 
0.4404093950847008 0.4404093950847008 0.4344297418754582 0.4344297418754582 0.4344297418754582 -0.2366055884071789 -0.2366055884071789 -0.2366055884071789 -0.2302433825767799 
-0.2302433825767799 -0.2302433825767799 0.2525842130292117 0.2525842130292117 0.2525842130292117 0.2700817045931595 0.2700817045931595 0.2700817045931595 -0.3209415706185724 
-0.3209415706185724 -0.3209415706185724 -0.3011651589792217 -0.3011651589792217 -0.3011651589792217 -0.367372344946537 -0.367372344946537 -0.367372344946537 -0.3621483054732353 
-0.3621483054732353 -0.3621483054732353 -0.228245586820163 -0.228245586820163 -0.228245586820163 -0.2366042270400866 -0.2366042270400866 -0.2366042270400866 -0.3153296613869642 
-0.3153296613869642 -0.3153296613869642 -0.2821806731365807 -0.2821806731365807 -0.2821806731365807 0.3702991425516939 0.3702991425516939 0.3702991425516939 0.3663440400661888 
0.3663440400661888 0.3663440400661888 0.1715281680909315 0.1715281680909315 0.1715281680909315 0.1726003393954847 0.1726003393954847 0.1726003393954847 0.174383330470458 
0.174383330470458 0.174383330470458 -0.5041939441903865 -0.5041939441903865 -0.5041939441903865 -0.4902514946908649 -0.4902514946908649 -0.4902514946908649 -0.4537506420401232 
-0.4537506420401232 -0.4537506420401232 -0.5412177146536974 -0.5412177146536974 -0.5412177146536974 -0.5387920500724144 -0.5387920500724144 -0.5387920500724144 -0.5373371077869434 
-0.5373371077869434 -0.5373371077869434 0.05354103793628316 0.05354103793628316 0.05354103793628316 0.05172124422317387 0.05172124422317387 0.05172124422317387 0.05005372309314229 
0.05005372309314229 0.05005372309314229 -0.439546179038981 -0.439546179038981 -0.439546179038981 -0.4418248053765717 -0.4418248053765717 -0.4418248053765717 -0.443734856857206 
-0.443734856857206 -0.443734856857206 0.3147692870983887 0.3147692870983887 0.3147692870983887 0.3155395531695082 0.3155395531695082 0.3155395531695082 0.08886368053136878 
0.08886368053136878 0.08886368053136878 0.08722749833485924 0.08722749833485924 0.08722749833485924 0.08430362359595768 0.08430362359595768 0.08430362359595768 -0.1293368712387979 
-0.1293368712387979 -0.1293368712387979 -0.1484638650124022 -0.1484638650124022 -0.1484638650124022 -0.1644695635337604 -0.1644695635337604 -0.1644695635337604 -0.3289566406567318 
-0.3289566406567318 -0.3289566406567318 -0.2836967927519967 -0.2836967927519967 -0.2836967927519967 -0.2911735736605461 -0.2911735736605461 -0.2911735736605461 0.2025235519345947 
0.2025235519345947 0.2025235519345947 0.03797584421410154 0.03797584421410154 0.03797584421410154 0.01485754310754659 0.01485754310754659 0.01485754310754659 -0.2452947821599467 
-0.2452947821599467 -0.2452947821599467 -0.243036987571977 -0.243036987571977 -0.243036987571977 -0.2430064832912961 -0.2430064832912961 -0.2430064832912961 0.4133687416058363 
0.4133687416058363 0.4133687416058363 0.4016780343837264 0.4016780343837264 0.4016780343837264 0.4014504622945774 0.4014504622945774 0.4014504622945774 0.234179398123587 
0.234179398123587 0.234179398123587 0.2352972601851506 0.2352972601851506 0.2352972601851506 0.2344254774019743 0.2344254774019743 0.2344254774019743 0.1754933573403432 
0.1754933573403432 0.1754933573403432 0.1771739087693049 0.1771739087693049 0.1771739087693049 -0.5406643417765262 -0.5406643417765262 -0.5406643417765262 -0.5415023379554476 
-0.5415023379554476 -0.5415023379554476 -0.5419147726280569 -0.5419147726280569 -0.5419147726280569 -0.107474762221955 -0.107474762221955 -0.107474762221955 -0.1037871594473141 
-0.1037871594473141 -0.1037871594473141 0.1856250309422003 0.1856250309422003 0.1856250309422003 0.1835073511045613 0.1835073511045613 0.1835073511045613 0.1585869189224905 
0.1585869189224905 0.1585869189224905 0.161249271013626 0.161249271013626 0.161249271013626 -0.13439696187078 -0.13439696187078 -0.13439696187078 -0.1364393796643137 
-0.1364393796643137 -0.1364393796643137 0.4188310392052134 0.4188310392052134 0.4188310392052134 0.4163944331322296 0.4163944331322296 0.4163944331322296 0.1868188520067775 
0.1868188520067775 0.1868188520067775 0.2223211400831134 0.2223211400831134 0.2223211400831134 -0.3715414344802459 -0.3715414344802459 -0.3715414344802459 -0.3697814888176186 
-0.3697814888176186 -0.3697814888176186 0.4578908402776621 0.4578908402776621 0.4578908402776621 0.4560626120869162 0.4560626120869162 0.4560626120869162 -0.3058391217193553 
-0.3058391217193553 -0.3058391217193553 -0.30906305626949 -0.30906305626949 -0.30906305626949 0.2714088526132707 0.2714088526132707 0.2714088526132707 0.2904867331756155 
0.2904867331756155 0.2904867331756155 -0.2722175386777566 -0.2722175386777566 -0.2722175386777566 -0.2699105756599259 -0.2699105756599259 -0.2699105756599259 0.1298684363968799 
0.1298684363968799 0.1298684363968799 0.1279234527347232 0.1279234527347232 0.1279234527347232 -0.09763201145340339 -0.09763201145340339 -0.09763201145340339 -0.05205979694487689 
-0.05205979694487689 -0.05205979694487689 -0.2984003283413305 -0.2984003283413305 -0.2984003283413305 -0.3167721005078382 -0.3167721005078382 -0.3167721005078382 0.483632996440829 
0.483632996440829 0.483632996440829 0.481623249657806 0.481623249657806 0.481623249657806 -0.4211402412551313 -0.4211402412551313 -0.4211402412551313 -0.4229635160947661 
-0.4229635160947661 -0.4229635160947661 -0.4234399259940577 -0.4234399259940577 -0.4234399259940577 -0.4248640227873219 -0.4248640227873219 -0.4248640227873219 0.1267594583308554 
0.1267594583308554 0.1267594583308554 0.1267675210749889 0.1267675210749889 0.1267675210749889 -0.3679214386899782 -0.3679214386899782 -0.3679214386899782 -0.3689119869521507 
-0.3689119869521507 -0.3689119869521507 -0.3158510691001607 -0.3158510691001607 -0.3158510691001607 -0.3904982940103717 -0.3904982940103717 -0.3904982940103717 0.1256558825011342 
0.1256558825011342 0.1256558825011342 0.1267645122179203 0.1267645122179203 0.1267645122179203 -0.3579563399967703 -0.3579563399967703 -0.3579563399967703 -0.3567015964985827 
-0.3567015964985827 -0.3567015964985827 0.496727343791616 0.496727343791616 0.496727343791616 0.495336664526358 0.495336664526358 0.495336664526358 -0.3327715238401993 
-0.3327715238401993 -0.3327715238401993 -0.3348179763462196 -0.3348179763462196 -0.3348179763462196 -0.396635925672288 -0.396635925672288 -0.396635925672288 -0.3808955268942316 
-0.3808955268942316 -0.3808955268942316 -0.567969589240263 -0.567969589240263 -0.567969589240263 -0.5683425842470797 -0.5683425842470797 -0.5683425842470797 -0.3148463336652501 
-0.3148463336652501 -0.3148463336652501 -0.3124640019805618 -0.3124640019805618 -0.3124640019805618 -0.0006568012098388598 -0.0006568012098388598 -0.0006568012098388598 -0.004151033515319115 
-0.004151033515319115 -0.004151033515319115 0.512017901066212 0.512017901066212 0.512017901066212 0.4751446787983531 0.4751446787983531 0.4751446787983531 -0.5451021949234651 
-0.5451021949234651 -0.5451021949234651 -0.5439385041391591 -0.5439385041391591 -0.5439385041391591 0.5942118822580027 0.5942118822580027 0.5942118822580027 0.5975370908536262 
0.5975370908536262 0.5975370908536262 0.226187181250759 0.226187181250759 0.226187181250759 0.2223783628987396 0.2223783628987396 0.2223783628987396 0.486627635102416 
0.486627635102416 0.486627635102416 0.4858797305258165 0.4858797305258165 0.4858797305258165 0.4799560202090814 0.4799560202090814 0.4799560202090814 0.478229962702334 
0.478229962702334 0.478229962702334 -0.545282706226688 -0.545282706226688 -0.545282706226688 0.1962855198043359 0.1962855198043359 0.1962855198043359 0.1982016365521453 
0.1982016365521453 0.1982016365521453 -0.4847994209268158 -0.4847994209268158 -0.4847994209268158 -0.4869430527953893 -0.4869430527953893 -0.4869430527953893 -0.4933090787421353 
-0.4933090787421353 -0.4933090787421353 -0.4916887032921085 -0.4916887032921085 -0.4916887032921085 -0.3094575273159615 -0.3094575273159615 -0.3094575273159615 -0.3082880370399808 
-0.3082880370399808 -0.3082880370399808 0.2864456594975498 0.2864456594975498 0.2864456594975498 0.2885759705650991 0.2885759705650991 0.2885759705650991 0.2884562370596213 
0.2884562370596213 0.2884562370596213 0.2903058239990768 0.2903058239990768 0.2903058239990768 -0.2661125140102422 -0.2661125140102422 -0.2661125140102422 -0.2615242482015011 
-0.2615242482015011 -0.2615242482015011 -0.4062982198403374 -0.4062982198403374 -0.4062982198403374 -0.3653201792387061 -0.3653201792387061 -0.3653201792387061 0.1147235562934018 
0.1147235562934018 0.1147235562934018 0.1162568211405321 0.1162568211405321 0.1162568211405321 -0.4036826739398123 -0.4036826739398123 -0.4036826739398123 -0.4046436577960466 
-0.4046436577960466 -0.4046436577960466 0.3138392954199728 0.3138392954199728 0.3138392954199728 -0.04330733488799665 -0.04330733488799665 -0.04330733488799665 0.01231670314966441 
0.01231670314966441 0.01231670314966441 0.3835417900154591 0.3835417900154591 0.3835417900154591 0.3831392189593912 0.3831392189593912 0.3831392189593912 -0.2260780850565898 
-0.2260780850565898 -0.2260780850565898 -0.2240276606544325 -0.2240276606544325 -0.2240276606544325 -0.20521766207715 -0.20521766207715 -0.20521766207715 -0.2025509613130075 
-0.2025509613130075 -0.2025509613130075 0.1152988015100194 0.1152988015100194 0.1152988015100194 0.1187094313737163 0.1187094313737163 0.1187094313737163 0.3778321991111915 
0.3778321991111915 0.3778321991111915 0.201002261034456 0.201002261034456 0.201002261034456 0.2045518558089469 0.2045518558089469 0.2045518558089469 0.2148792455059274 
0.2148792455059274 0.2148792455059274 0.2165144380608945 0.2165144380608945 0.2165144380608945 -0.4456698463592461 -0.4456698463592461 -0.4456698463592461 -0.4442791842851069 
-0.4442791842851069 -0.4442791842851069 -0.4853473022279565 -0.4853473022279565 -0.4853473022279565 -0.4918243366952167 -0.4918243366952167 -0.4918243366952167 -0.3746980741216924 
-0.3746980741216924 -0.3746980741216924 -0.3731067847634054 -0.3731067847634054 -0.3731067847634054 0.4410664050703399 0.4410664050703399 0.4410664050703399 0.4390372448611684 
0.4390372448611684 0.4390372448611684 -0.2177319073448375 -0.2177319073448375 -0.2177319073448375 -0.2195725090819586 -0.2195725090819586 -0.2195725090819586 0.3836038989298612 
0.3836038989298612 0.3836038989298612 0.3821579358398596 0.3821579358398596 0.3821579358398596 0.3618914993723431 0.3618914993723431 0.3618914993723431 0.3190448226677344 
0.3190448226677344 0.3190448226677344 0.2063134048545424 0.2063134048545424 0.2063134048545424 0.2045317412418154 0.2045317412418154 0.2045317412418154 0.03417739659989232 
0.03417739659989232 0.03417739659989232 0.03467019220133856 0.03467019220133856 0.03467019220133856 -0.05697892595708876 -0.05697892595708876 -0.05697892595708876 -0.06817318527412414 
-0.06817318527412414 -0.06817318527412414 -0.2125040787763246 -0.2125040787763246 -0.2125040787763246 -0.2144685401145406 -0.2144685401145406 -0.2144685401145406 0.003910731789220738 
0.003910731789220738 0.003910731789220738 -0.01527130360555894 -0.01527130360555894 -0.01527130360555894 -0.4812314026646396 -0.4812314026646396 -0.4812314026646396 -0.3226246340490764 
-0.3226246340490764 -0.3226246340490764 -0.07340331535863098 -0.07340331535863098 -0.07340331535863098 -0.4464003076472667 -0.4464003076472667 -0.4464003076472667 -0.4418046658382305 
-0.4418046658382305 -0.4418046658382305 -0.3574807049787524 -0.3574807049787524 -0.3574807049787524 -0.3536637243028508 -0.3536637243028508 -0.3536637243028508 0.4738447118907039 
0.4738447118907039 0.4738447118907039 0.470347476902219 0.470347476902219 0.470347476902219 0.3139506529294249 0.3139506529294249 0.3139506529294249 0.3108779210136615 
0.3108779210136615 0.3108779210136615 0.1438443358086197 0.1438443358086197 0.1438443358086197 0.1286153626513434 0.1286153626513434 0.1286153626513434 0.3255482918955884 
0.3255482918955884 0.3255482918955884 0.3190604423975926 0.3190604423975926 0.3190604423975926 -0.2935774056608895 -0.2935774056608895 -0.2935774056608895 -0.1879755612243371 
-0.1879755612243371 -0.1879755612243371 -0.235616555269727 -0.235616555269727 -0.235616555269727 -0.2381665433442761 -0.2381665433442761 -0.2381665433442761 -0.5219044106678405 
-0.5219044106678405 -0.5219044106678405 -0.5178297216384695 -0.5178297216384695 -0.5178297216384695 -0.4133976942103195 -0.4133976942103195 -0.4133976942103195 -0.4216633345602949 
-0.4216633345602949 -0.4216633345602949 -0.2426991209912464 -0.2426991209912464 -0.2426991209912464 -0.2297655312738936 -0.2297655312738936 -0.2297655312738936 -0.1960833579784536 
-0.1960833579784536 -0.1960833579784536 -0.191441299700599 -0.191441299700599 -0.191441299700599 0.3125743300096773 0.3125743300096773 0.3125743300096773 0.3682095291315514 
0.3682095291315514 0.3682095291315514 0.2525376532469606 0.2525376532469606 0.2525376532469606 0.2525973602061198 0.2525973602061198 0.2525973602061198 0.08326068366903044 
0.08326068366903044 0.08326068366903044 0.07915856241674941 0.07915856241674941 0.07915856241674941 -0.3139776590922376 -0.3139776590922376 -0.3139776590922376 -0.3070632150864256 
-0.3070632150864256 -0.3070632150864256 -0.3895136038362369 -0.3895136038362369 -0.3895136038362369 0.3603660973858032 0.3603660973858032 0.3603660973858032 0.3582368186463029 
0.3582368186463029 0.3582368186463029 0.3096010567520521 0.3096010567520521 0.3096010567520521 0.3139774799506238 0.3139774799506238 0.3139774799506238 -0.4319925311944074 
-0.4319925311944074 -0.4319925311944074 -0.4095572426818205 -0.4095572426818205 -0.4095572426818205 -0.1561249750687404 -0.1561249750687404 -0.1561249750687404 -0.1524965904620848 
-0.1524965904620848 -0.1524965904620848 0.2772435338444244 0.2772435338444244 0.2772435338444244 0.284987671390239 0.284987671390239 0.284987671390239 -0.3520884486250957 
-0.3520884486250957 -0.3520884486250957 -0.3515940179608533 -0.3515940179608533 -0.3515940179608533 -0.3332617872627812 -0.3332617872627812 -0.3332617872627812 -0.3299797002055772 
-0.3299797002055772 -0.3299797002055772 0.3886612233575351 0.3886612233575351 0.3886612233575351 0.389353927550846 0.389353927550846 0.389353927550846 -0.3477859959477079 
-0.3477859959477079 -0.3477859959477079 -0.3167413182219002 -0.3167413182219002 -0.3167413182219002 -0.05137305802421083 -0.05137305802421083 -0.05137305802421083 0.04714670160655236 
0.04714670160655236 0.04714670160655236 -0.2769738710067331 -0.2769738710067331 -0.2769738710067331 -0.2961714972934142 -0.2961714972934142 -0.2961714972934142 0.22009494377866 
0.22009494377866 0.22009494377866 0.2166888609804706 0.2166888609804706 0.2166888609804706 0.2347469201326037 0.2347469201326037 0.2347469201326037 0.2290019929340852 
0.2290019929340852 0.2290019929340852 0.4407915656975493 0.4407915656975493 0.4407915656975493 0.4382514126875523 0.4382514126875523 0.4382514126875523 0.3520753840505086 
0.3520753840505086 0.3520753840505086 0.3560080681119634 0.3560080681119634 0.3560080681119634 -0.1925820902371182 -0.1925820902371182 -0.1925820902371182 -0.1125944644623375 
-0.1125944644623375 -0.1125944644623375 -0.4595372568424625 -0.4595372568424625 -0.4595372568424625 -0.4940081981058493 -0.4940081981058493 -0.4940081981058493 0.3507661891139323 
0.3507661891139323 0.3507661891139323 0.3510248601394252 0.3510248601394252 0.3510248601394252 -0.4112557903944173 -0.4112557903944173 -0.4112557903944173 -0.4150413219466729 
-0.4150413219466729 -0.4150413219466729 -0.2354196528793578 -0.2354196528793578 -0.2354196528793578 -0.2398439243287105 -0.2398439243287105 -0.2398439243287105 0.4927709668657185 
0.4927709668657185 0.4927709668657185 0.501143889944189 0.501143889944189 0.501143889944189 0.4526566350898298 0.4526566350898298 0.4526566350898298 0.4494917818241367 
0.4494917818241367 0.4494917818241367 -0.1532474943679339 -0.1532474943679339 -0.1532474943679339 -0.1549391861388957 -0.1549391861388957 -0.1549391861388957 -0.3430096823314127 
-0.3430096823314127 -0.3430096823314127 -0.3474193042356688 -0.3474193042356688 -0.3474193042356688 0.2584977659611913 0.2584977659611913 0.2584977659611913 0.1184312562439918 
0.1184312562439918 0.1184312562439918 -0.2352526494919424 -0.2352526494919424 -0.2352526494919424 -0.229442948591229 -0.229442948591229 -0.229442948591229 0.1560933297722258 
0.1560933297722258 0.1560933297722258 0.1595901825816597 0.1595901825816597 0.1595901825816597 -0.3243832364785272 -0.3243832364785272 -0.3243832364785272 -0.3238566062803504 
-0.3238566062803504 -0.3238566062803504 0.04934858767588349 0.04934858767588349 0.04934858767588349 0.04584435810287295 0.04584435810287295 0.04584435810287295 0.538097048488711 
0.538097048488711 0.538097048488711 0.5331865855094512 0.5331865855094512 0.5331865855094512 0.1202279843594054 0.1202279843594054 0.1202279843594054 -0.1066762771011776 
-0.1066762771011776 -0.1066762771011776 0.1976461200155371 0.1976461200155371 0.1976461200155371 0.1959659475882612 0.1959659475882612 0.1959659475882612 -0.3940727316951654 
-0.3940727316951654 -0.3940727316951654 -0.4783360830056673 -0.4783360830056673 -0.4783360830056673 -0.04807956591543067 -0.04807956591543067 -0.04807956591543067 -0.07763832286802132 
-0.07763832286802132 -0.07763832286802132 -0.4844427745124488 -0.4844427745124488 -0.4844427745124488 -0.5532764703964318 -0.5532764703964318 -0.5532764703964318 0.2459883117212306 
0.2459883117212306 0.2459883117212306 0.2397219976570801 0.2397219976570801 0.2397219976570801 0.3675746742784912 0.3675746742784912 0.3675746742784912 0.3589791634130686 
0.3589791634130686 0.3589791634130686 -0.195871063152191 -0.195871063152191 -0.195871063152191 -0.2004085959651445 -0.2004085959651445 -0.2004085959651445 -0.2160479202362087 
-0.2160479202362087 -0.2160479202362087 -0.2117295190237089 -0.2117295190237089 -0.2117295190237089 0.4478975791483589 0.4478975791483589 0.4478975791483589 0.4517406088307453 
0.4517406088307453 0.4517406088307453 0.1911465605276312 0.1911465605276312 0.1911465605276312 0.1873926754746412 0.1873926754746412 0.1873926754746412 0.42875076086113 
0.42875076086113 0.42875076086113 0.4257265998908513 0.4257265998908513 0.4257265998908513 0.33104401269789 0.33104401269789 0.33104401269789 0.3268578763798141 
0.3268578763798141 0.3268578763798141 0.3833467755470317 0.3833467755470317 0.3833467755470317 0.3785881151628581 0.3785881151628581 0.3785881151628581 0.3744945048593731 
0.3744945048593731 0.3744945048593731 0.3761669880899307 0.3761669880899307 0.3761669880899307 -0.31494379456267 -0.31494379456267 -0.31494379456267 -0.31637304293574 
-0.31637304293574 -0.31637304293574 -0.318459966283909 -0.318459966283909 -0.318459966283909 -0.2020685955699183 -0.2020685955699183 -0.2020685955699183 -0.1961865521053084 
-0.1961865521053084 -0.1961865521053084 -0.1833168811297154 -0.1833168811297154 -0.1833168811297154 -0.4384857463502002 -0.4384857463502002 -0.4384857463502002 -0.4343168359697347 
-0.4343168359697347 -0.4343168359697347 -0.4285890127469517 -0.4285890127469517 -0.4285890127469517 -0.2387302778305181 -0.2387302778305181 -0.2387302778305181 -0.2275067212040397 
-0.2275067212040397 -0.2275067212040397 -0.1120325382722564 -0.1120325382722564 -0.1120325382722564 -0.3024060083467349 -0.3024060083467349 -0.3024060083467349 -0.3052641063951115 
-0.3052641063951115 -0.3052641063951115 -0.3180585772445008 -0.3180585772445008 -0.3180585772445008 -0.3671171753763749 -0.3671171753763749 -0.3671171753763749 -0.3633192786331471 
-0.3633192786331471 -0.3633192786331471 -0.3612747287081011 -0.3612747287081011 -0.3612747287081011 0.4557930564027604 0.4557930564027604 0.4557930564027604 0.2021751697840282 
0.2021751697840282 0.2021751697840282 0.1789384575188186 0.1789384575188186 0.1789384575188186 0.1814462623684568 0.1814462623684568 0.1814462623684568 0.1633457104982093 
0.1633457104982093 0.1633457104982093 0.1624555401045612 0.1624555401045612 0.1624555401045612 0.1573586405823426 0.1573586405823426 0.1573586405823426 0.2288487866001816 
0.2288487866001816 0.2288487866001816 0.2280611137335166 0.2280611137335166 0.2280611137335166 0.06030318443661491 0.06030318443661491 0.06030318443661491 -0.3455096564423546 
-0.3455096564423546 -0.3455096564423546 -0.3404154606287998 -0.3404154606287998 -0.3404154606287998 -0.3250476761485957 -0.3250476761485957 -0.3250476761485957 0.116902409883048 
0.116902409883048 0.116902409883048 0.2176664291950079 0.2176664291950079 0.2176664291950079 0.2334948203283584 0.2334948203283584 0.2334948203283584 -0.2661582517184432 
-0.2661582517184432 -0.2661582517184432 -0.3545249471684584 -0.3545249471684584 -0.3545249471684584 -0.2463837645293557 -0.2463837645293557 -0.2463837645293557 0.3584595982956532 
0.3584595982956532 0.3584595982956532 0.3558359608683257 0.3558359608683257 0.3558359608683257 0.354246120913894 0.354246120913894 0.354246120913894 -0.4162421688233583 
-0.4162421688233583 -0.4162421688233583 -0.426150120147209 -0.426150120147209 -0.426150120147209 -0.4887748234897505 -0.4887748234897505 -0.4887748234897505 0.2354641323584027 
0.2354641323584027 0.2354641323584027 0.2355932479648516 0.2355932479648516 0.2355932479648516 0.2502702250036068 0.2502702250036068 0.2502702250036068 -0.2245963721692092 
-0.2245963721692092 -0.2245963721692092 -0.3079292021545317 -0.3079292021545317 -0.3079292021545317 -0.3297241706989101 -0.3297241706989101 -0.3297241706989101 -0.5128594601667285 
-0.5128594601667285 -0.5128594601667285 -0.5118325856363964 -0.5118325856363964 -0.5118325856363964 -0.510206736388819 -0.510206736388819 -0.510206736388819 -0.2822916105318377 
-0.2822916105318377 -0.2822916105318377 -0.2811911092433923 -0.2811911092433923 -0.2811911092433923 -0.2828781728565525 -0.2828781728565525 -0.2828781728565525 0.3910325897652256 
0.3910325897652256 0.3910325897652256 0.3929494488733003 0.3929494488733003 0.3929494488733003 0.3945227519258472 0.3945227519258472 0.3945227519258472 0.4754138356069428 
0.4754138356069428 0.4754138356069428 0.4780891212870089 0.4780891212870089 0.4780891212870089 0.4781850457438381 0.4781850457438381 0.4781850457438381 0.2782198261402739 
0.2782198261402739 0.2782198261402739 0.2781593704315004 0.2781593704315004 0.2781593704315004 0.2786419080692082 0.2786419080692082 0.2786419080692082 -0.347705064462178 
-0.347705064462178 -0.347705064462178 -0.345867128615933 -0.345867128615933 -0.345867128615933 -0.3443760757572461 -0.3443760757572461 -0.3443760757572461 0.1663416354790167 
0.1663416354790167 0.1663416354790167 0.167829186209304 0.167829186209304 0.167829186209304 0.1698197188180208 0.1698197188180208 0.1698197188180208 -0.4838555375270782 
-0.4838555375270782 -0.4838555375270782 -0.4895451984412982 -0.4895451984412982 -0.4895451984412982 -0.4913689009648389 -0.4913689009648389 -0.4913689009648389 -0.3612190552181247 
-0.3612190552181247 -0.3612190552181247 -0.3592708594839938 -0.3592708594839938 -0.3592708594839938 -0.3574599172189949 -0.3574599172189949 -0.3574599172189949 0.3228913832928499 
0.3228913832928499 0.3228913832928499 0.3190300481038605 0.3190300481038605 0.3190300481038605 0.3173638397338771 0.3173638397338771 0.3173638397338771 -0.3797354199137773 
-0.3797354199137773 -0.3797354199137773 -0.3790381188466473 -0.3790381188466473 -0.3790381188466473 -0.3773177626791504 -0.3773177626791504 -0.3773177626791504 -0.3102363860753068 
-0.3102363860753068 -0.3102363860753068 -0.3140592826661525 -0.3140592826661525 -0.3140592826661525 -0.3122370454648382 -0.3122370454648382 -0.3122370454648382 -0.4853093596458707 