Title = Quad200
FileType = Solution
Variables = q
Zone T = Quad200
ZoneType = FETriangle
Nodes = 160000
Elements = 80000
DataPacking = Block
StrandID = 19
SolutionTime = 1.8
0.4806174836435702 0.4806174836435702 0.4806174836435702 0.4806174836435702 0.4816537135499929 0.4816537135499929 0.4816537135499929 0.4816537135499929 0.4824844226197841 0.4824844226197841 
0.4824844226197841 0.4824844226197841 0.4830863585255041 0.4830863585255041 0.4830863585255041 0.4830863585255041 0.4834295029907228 0.4834295029907228 0.4834295029907228 
0.4834295029907228 0.4834763431101822 0.4834763431101822 0.4834763431101822 0.4834763431101822 0.4831812350961968 0.4831812350961968 0.4831812350961968 0.4831812350961968 
0.4824897477669953 0.4824897477669953 0.4824897477669953 0.4824897477669953 0.4813378229965245 0.4813378229965245 0.4813378229965245 0.4813378229965245 0.4796511420091915 
0.4796511420091915 0.4796511420091915 0.4796511420091915 0.4773446803649879 0.4773446803649879 0.4773446803649879 0.4773446803649879 0.4743225896137975 0.4743225896137975 
0.4743225896137975 0.4743225896137975 0.4704786106109794 0.4704786106109794 0.4704786106109794 0.4704786106109794 0.4656973152553821 0.4656973152553821 0.4656973152553821 
0.4656973152553821 0.4598565995694963 0.4598565995694963 0.4598565995694963 0.4598565995694963 0.4528320162868931 0.4528320162868931 0.4528320162868931 0.4528320162868931 
0.4445037339619498 0.4445037339619498 0.4445037339619498 0.4445037339619498 0.4347671105658779 0.4347671105658779 0.4347671105658779 0.4347671105658779 0.4235479855560054 
0.4235479855560054 0.4235479855560054 0.4235479855560054 0.4108236354943005 0.4108236354943005 0.4108236354943005 0.4108236354943005 0.3966495535564417 0.3966495535564417 
0.3966495535564417 0.3966495535564417 0.381190268970436 0.381190268970436 0.381190268970436 0.381190268970436 0.3647487500194331 0.3647487500194331 0.3647487500194331 
0.3647487500194331 0.3477835054109035 0.3477835054109035 0.3477835054109035 0.3477835054109035 0.3308970610317064 0.3308970610317064 0.3308970610317064 0.3308970610317064 
0.3147789900518866 0.3147789900518866 0.3147789900518866 0.3147789900518866 0.3000984554383366 0.3000984554383366 0.3000984554383366 0.3000984554383366 0.287368048623331 
0.287368048623331 0.287368048623331 0.287368048623331 0.2768293501195324 0.2768293501195324 0.2768293501195324 0.2768293501195324 0.2684130869866442 0.2684130869866442 
0.2684130869866442 0.2684130869866442 0.2617893871130392 0.2617893871130392 0.2617893871130392 0.2617893871130392 0.2564737882508888 0.2564737882508888 0.2564737882508888 
0.2564737882508888 0.2519347688331002 0.2519347688331002 0.2519347688331002 0.2519347688331002 0.2476667425270356 0.2476667425270356 0.2476667425270356 0.2476667425270356 
0.2432222411875472 0.2432222411875472 0.2432222411875472 0.2432222411875472 0.23821501646689 0.23821501646689 0.23821501646689 0.23821501646689 0.2323090271865516 
0.2323090271865516 0.2323090271865516 0.2323090271865516 0.2252042213991531 0.2252042213991531 0.2252042213991531 0.2252042213991531 0.2166250620980233 0.2166250620980233 
0.2166250620980233 0.2166250620980233 0.2063143672856355 0.2063143672856355 0.2063143672856355 0.2063143672856355 0.1940334310362231 0.1940334310362231 0.1940334310362231 
0.1940334310362231 0.1795691626015591 0.1795691626015591 0.1795691626015591 0.1795691626015591 0.1627499168683476 0.1627499168683476 0.1627499168683476 0.1627499168683476 
0.1434741824882842 0.1434741824882842 0.1434741824882842 0.1434741824882842 0.1217620744378809 0.1217620744378809 0.1217620744378809 0.1217620744378809 0.09785260035470925 
0.09785260035470925 0.09785260035470925 0.09785260035470925 0.07239357255316459 0.07239357255316459 0.07239357255316459 0.07239357255316459 0.04679631954636884 0.04679631954636884 
0.04679631954636884 0.04679631954636884 0.02382170353527004 0.02382170353527004 0.02382170353527004 0.02382170353527004 0.008228531267923184 0.008228531267923184 0.008228531267923184 
0.008228531267923184 0.003309070036913592 0.003309070036913592 0.003309070036913592 0.003309070036913592 -0.00200593609021374 -0.00200593609021374 -0.00200593609021374 -0.00200593609021374 
-0.02128341393989606 -0.02128341393989606 -0.02128341393989606 -0.02128341393989606 -0.04645911651931758 -0.04645911651931758 -0.04645911651931758 -0.04645911651931758 -0.07310026125439428 
-0.07310026125439428 -0.07310026125439428 -0.07310026125439428 -0.09892540248100271 -0.09892540248100271 -0.09892540248100271 -0.09892540248100271 -0.1228417179546223 -0.1228417179546223 
-0.1228417179546223 -0.1228417179546223 -0.1443764412566545 -0.1443764412566545 -0.1443764412566545 -0.1443764412566545 -0.1633820599076852 -0.1633820599076852 -0.1633820599076852 
-0.1633820599076852 -0.1798889787179803 -0.1798889787179803 -0.1798889787179803 -0.1798889787179803 -0.1940296127905937 -0.1940296127905937 -0.1940296127905937 -0.1940296127905937 
-0.2059966109678857 -0.2059966109678857 -0.2059966109678857 -0.2059966109678857 -0.2160189425616657 -0.2160189425616657 -0.2160189425616657 -0.2160189425616657 -0.2243489516677652 
-0.2243489516677652 -0.2243489516677652 -0.2243489516677652 -0.2312574627614285 -0.2312574627614285 -0.2312574627614285 -0.2312574627614285 -0.2370357108471001 -0.2370357108471001 
-0.2370357108471001 -0.2370357108471001 -0.2420032676267653 -0.2420032676267653 -0.2420032676267653 -0.2420032676267653 -0.2465203580604018 -0.2465203580604018 -0.2465203580604018 
-0.2465203580604018 -0.2510007349655291 -0.2510007349655291 -0.2510007349655291 -0.2510007349655291 -0.2559173722235271 -0.2559173722235271 -0.2559173722235271 -0.2559173722235271 
-0.2617885693319888 -0.2617885693319888 -0.2617885693319888 -0.2617885693319888 -0.2691304945955977 -0.2691304945955977 -0.2691304945955977 -0.2691304945955977 -0.2783708191754968 
-0.2783708191754968 -0.2783708191754968 -0.2783708191754968 -0.2897411099667779 -0.2897411099667779 -0.2897411099667779 -0.2897411099667779 -0.3031921617515099 -0.3031921617515099 
-0.3031921617515099 -0.3031921617515099 -0.3183799633723502 -0.3183799633723502 -0.3183799633723502 -0.3183799633723502 -0.3347364521258364 -0.3347364521258364 -0.3347364521258364 
-0.3347364521258364 -0.3515928184039975 -0.3515928184039975 -0.3515928184039975 -0.3515928184039975 -0.3683026916461421 -0.3683026916461421 -0.3683026916461421 -0.3683026916461421 
-0.384327329169709 -0.384327329169709 -0.384327329169709 -0.384327329169709 -0.3992731591900387 -0.3992731591900387 -0.3992731591900387 -0.3992731591900387 -0.4128918820996477 
-0.4128918820996477 -0.4128918820996477 -0.4128918820996477 -0.4250593538611757 -0.4250593538611757 -0.4250593538611757 -0.4250593538611757 -0.4357467885317371 -0.4357467885317371 
-0.4357467885317371 -0.4357467885317371 -0.4449925711321592 -0.4449925711321592 -0.4449925711321592 -0.4449925711321592 -0.4528785023340134 -0.4528785023340134 -0.4528785023340134 
-0.4528785023340134 -0.4595114860918979 -0.4595114860918979 -0.4595114860918979 -0.4595114860918979 -0.4650102632007469 -0.4650102632007469 -0.4650102632007469 -0.4650102632007469 
-0.4694962696165901 -0.4694962696165901 -0.4694962696165901 -0.4694962696165901 -0.4730876329005134 -0.4730876329005134 -0.4730876329005134 -0.4730876329005134 -0.4758954477227736 
-0.4758954477227736 -0.4758954477227736 -0.4758954477227736 -0.4780216522017948 -0.4780216522017948 -0.4780216522017948 -0.4780216522017948 -0.4795579984796792 -0.4795579984796792 
-0.4795579984796792 -0.4795579984796792 -0.4805857517524362 -0.4805857517524362 -0.4805857517524362 -0.4805857517524362 -0.4811758592714253 -0.4811758592714253 -0.4811758592714253 
-0.4811758592714253 -0.4813894091618846 -0.4813894091618846 -0.4813894091618846 -0.4813894091618846 -0.4812782674058829 -0.4812782674058829 -0.4812782674058829 -0.4812782674058829 
-0.480885898788511 -0.480885898788511 -0.480885898788511 -0.480885898788511 -0.4802479424753586 -0.4802479424753586 -0.4802479424753586 -0.4802479424753586 -0.4793928770137571 
-0.4793928770137571 -0.4793928770137571 -0.4793928770137571 -0.4783427188132368 -0.4783427188132368 -0.4783427188132368 -0.4783427188132368 -0.4771136516906549 -0.4771136516906549 
-0.4771136516906549 -0.4771136516906549 -0.4757165807061388 -0.4757165807061388 -0.4757165807061388 -0.4757165807061388 -0.4741576075553059 -0.4741576075553059 -0.4741576075553059 
-0.4741576075553059 -0.4724384286114572 -0.4724384286114572 -0.4724384286114572 -0.4724384286114572 -0.4705566591011718 -0.4705566591011718 -0.4705566591011718 -0.4705566591011718 
-0.4685060887059959 -0.4685060887059959 -0.4685060887059959 -0.4685060887059959 -0.46627688542631 -0.46627688542631 -0.46627688542631 -0.46627688542631 -0.4638558233503338 
-0.4638558233503338 -0.4638558233503338 -0.4638558233503338 -0.4612263564532909 -0.4612263564532909 -0.4612263564532909 -0.4612263564532909 -0.4583686864642507 -0.4583686864642507 
-0.4583686864642507 -0.4583686864642507 -0.4552598307309144 -0.4552598307309144 -0.4552598307309144 -0.4552598307309144 -0.4518736903838148 -0.4518736903838148 -0.4518736903838148 
-0.4518736903838148 -0.4481811340011578 -0.4481811340011578 -0.4481811340011578 -0.4481811340011578 -0.4441501152347516 -0.4441501152347516 -0.4441501152347516 -0.4441501152347516 
-0.4397458455544675 -0.4397458455544675 -0.4397458455544675 -0.4397458455544675 -0.4349310460777274 -0.4349310460777274 -0.4349310460777274 -0.4349310460777274 -0.4296663055658779 
-0.4296663055658779 -0.4296663055658779 -0.4296663055658779 -0.4239105751370846 -0.4239105751370846 -0.4239105751370846 -0.4239105751370846 -0.4176218341504087 -0.4176218341504087 
-0.4176218341504087 -0.4176218341504087 -0.4107579656683524 -0.4107579656683524 -0.4107579656683524 -0.4107579656683524 -0.403277883515077 -0.403277883515077 -0.403277883515077 
-0.403277883515077 -0.3951429556001397 -0.3951429556001397 -0.3951429556001397 -0.3951429556001397 -0.3863187688280063 -0.3863187688280063 -0.3863187688280063 -0.3863187688280063 
-0.3767772778988288 -0.3767772778988288 -0.3767772778988288 -0.3767772778988288 -0.366499371091102 -0.366499371091102 -0.366499371091102 -0.366499371091102 -0.3554778669675728 
-0.3554778669675728 -0.3554778669675728 -0.3554778669675728 -0.3437209215233158 -0.3437209215233158 -0.3437209215233158 -0.3437209215233158 -0.3312557682907336 -0.3312557682907336 
-0.3312557682907336 -0.3312557682907336 -0.3181326249633684 -0.3181326249633684 -0.3181326249633684 -0.3181326249633684 -0.3044284684737317 -0.3044284684737317 -0.3044284684737317 
-0.3044284684737317 -0.2902501965776385 -0.2902501965776385 -0.2902501965776385 -0.2902501965776385 -0.2757364554520132 -0.2757364554520132 -0.2757364554520132 -0.2757364554520132 
-0.2610571363651698 -0.2610571363651698 -0.2610571363651698 -0.2610571363651698 -0.246409286063455 -0.246409286063455 -0.246409286063455 -0.246409286063455 -0.2320080562497664 
-0.2320080562497664 -0.2320080562497664 -0.2320080562497664 -0.2180715411910017 -0.2180715411910017 -0.2180715411910017 -0.2180715411910017 -0.2047991758062582 -0.2047991758062582 
-0.2047991758062582 -0.2047991758062582 -0.192344959689348 -0.192344959689348 -0.192344959689348 -0.192344959689348 -0.1807889355305781 -0.1807889355305781 -0.1807889355305781 
-0.1807889355305781 -0.1701122167829424 -0.1701122167829424 -0.1701122167829424 -0.1701122167829424 -0.1601809872039003 -0.1601809872039003 -0.1601809872039003 -0.1601809872039003 
-0.1507421319065843 -0.1507421319065843 -0.1507421319065843 -0.1507421319065843 -0.1414278566876205 -0.1414278566876205 -0.1414278566876205 -0.1414278566876205 -0.131760733920381 
-0.131760733920381 -0.131760733920381 -0.131760733920381 -0.1211454673939536 -0.1211454673939536 -0.1211454673939536 -0.1211454673939536 -0.1088266101432482 -0.1088266101432482 
-0.1088266101432482 -0.1088266101432482 -0.09376991476743812 -0.09376991476743812 -0.09376991476743812 -0.09376991476743812 -0.07434155144907403 -0.07434155144907403 -0.07434155144907403 
-0.07434155144907403 -0.04726432822881327 -0.04726432822881327 -0.04726432822881327 -0.04726432822881327 -0.002458969467836521 -0.002458969467836521 -0.002458969467836521 -0.002458969467836521 
0.04513740529385117 0.04513740529385117 0.04513740529385117 0.04513740529385117 0.07331683351828067 0.07331683351828067 0.07331683351828067 0.07331683351828067 0.09343792297626492 
0.09343792297626492 0.09343792297626492 0.09343792297626492 0.108986683858996 0.108986683858996 0.108986683858996 0.108986683858996 0.1216530493844674 0.1216530493844674 
0.1216530493844674 0.1216530493844674 0.1324901732773364 0.1324901732773364 0.1324901732773364 0.1324901732773364 0.14226090723006 0.14226090723006 0.14226090723006 
0.14226090723006 0.1515658335049663 0.1515658335049663 0.1515658335049663 0.1515658335049663 0.1608908601432873 0.1608908601432873 0.1608908601432873 0.1608908601432873 
0.1706187579075037 0.1706187579075037 0.1706187579075037 0.1706187579075037 0.1810251349203239 0.1810251349203239 0.1810251349203239 0.1810251349203239 0.192272214758281 
0.192272214758281 0.192272214758281 0.192272214758281 0.2044095230892737 0.2044095230892737 0.2044095230892737 0.2044095230892737 0.217385523570634 0.217385523570634 
0.217385523570634 0.217385523570634 0.2310690465774109 0.2310690465774109 0.2310690465774109 0.2310690465774109 0.2452759550920376 0.2452759550920376 0.2452759550920376 
0.2452759550920376 0.2597957867536871 0.2597957867536871 0.2597957867536871 0.2597957867536871 0.2744144358510187 0.2744144358510187 0.2744144358510187 0.2744144358510187 
0.2889309698101701 0.2889309698101701 0.2889309698101701 0.2889309698101701 0.3031684001726982 0.3031684001726982 0.3031684001726982 0.3031684001726982 0.3169792630227458 
0.3169792630227458 0.3169792630227458 0.3169792630227458 0.3302472670221684 0.3302472670221684 0.3302472670221684 0.3302472670221684 0.3428862613569009 0.3428862613569009 
0.3428862613569009 0.3428862613569009 0.3548375726745106 0.3548375726745106 0.3548375726745106 0.3548375726745106 0.3660665007058979 0.3660665007058979 0.3660665007058979 
0.3660665007058979 0.3765585205724019 0.3765585205724019 0.3765585205724019 0.3765585205724019 0.3863155444509213 0.3863155444509213 0.3863155444509213 0.3863155444509213 
0.3953524504741539 0.3953524504741539 0.3953524504741539 0.3953524504741539 0.4036939859274583 0.4036939859274583 0.4036939859274583 0.4036939859274583 0.4113720852723988 
0.4113720852723988 0.4113720852723988 0.4113720852723988 0.4184236019651216 0.4184236019651216 0.4184236019651216 0.4184236019651216 0.4248884287941029 0.4248884287941029 
0.4248884287941029 0.4248884287941029 0.4308079687501748 0.4308079687501748 0.4308079687501748 0.4308079687501748 0.4362239131063169 0.4362239131063169 0.4362239131063169 
0.4362239131063169 0.4411772825557159 0.4411772825557159 0.4411772825557159 0.4411772825557159 0.4457076890209609 0.4457076890209609 0.4457076890209609 0.4457076890209609 
0.4498527788758756 0.4498527788758756 0.4498527788758756 0.4498527788758756 0.453647822012878 0.453647822012878 0.453647822012878 0.453647822012878 0.4571254148975075 
0.4571254148975075 0.4571254148975075 0.4571254148975075 0.460315269275736 0.460315269275736 0.460315269275736 0.460315269275736 0.4632440614502914 0.4632440614502914 
0.4632440614502914 0.4632440614502914 0.4659353201839179 0.4659353201839179 0.4659353201839179 0.4659353201839179 0.4684093340340459 0.4684093340340459 0.4684093340340459 
0.4684093340340459 0.4706830597679387 0.4706830597679387 0.4706830597679387 0.4706830597679387 0.472770020821375 0.472770020821375 0.472770020821375 0.472770020821375 
0.4746802333768923 0.4746802333768923 0.4746802333768923 0.4746802333768923 0.4764199684669122 0.4764199684669122 0.4764199684669122 0.4764199684669122 0.4779915094993377 
0.4779915094993377 0.4779915094993377 0.4779915094993377 0.479392877013757 0.479392877013757 0.479392877013757 0.479392877013757 0.4816537135499926 0.4816537135499926 
0.4816537135499926 0.4816537135499926 0.4828734250214436 0.4828734250214436 0.4828734250214436 0.4828734250214436 0.4838946957799731 0.4838946957799731 0.4838946957799731 
0.4838946957799731 0.4846993521849493 0.4846993521849493 0.4846993521849493 0.4846993521849493 0.4852628189373197 0.4852628189373197 0.4852628189373197 0.4852628189373197 
0.4855534287070185 0.4855534287070185 0.4855534287070185 0.4855534287070185 0.4855316642579947 0.4855316642579947 0.4855316642579947 0.4855316642579947 0.4851495564375159 
0.4851495564375159 0.4851495564375159 0.4851495564375159 0.4843499090000429 0.4843499090000429 0.4843499090000429 0.4843499090000429 0.4830654654946959 0.4830654654946959 
0.4830654654946959 0.4830654654946959 0.4812182672210924 0.4812182672210924 0.4812182672210924 0.4812182672210924 0.4787192218140707 0.4787192218140707 0.4787192218140707 
0.4787192218140707 0.4754680413674644 0.4754680413674644 0.4754680413674644 0.4754680413674644 0.47135378525511 0.47135378525511 0.47135378525511 0.47135378525511 
0.4662563513781152 0.4662563513781152 0.4662563513781152 0.4662563513781152 0.4600494092980087 0.4600494092980087 0.4600494092980087 0.4600494092980087 0.452605464285421 
0.452605464285421 0.452605464285421 0.452605464285421 0.4438039728856629 0.4438039728856629 0.4438039728856629 0.4438039728856629 0.4335436520637441 0.4335436520637441 
0.4335436520637441 0.4335436520637441 0.4217602128973694 0.4217602128973694 0.4217602128973694 0.4217602128973694 0.4084504454940225 0.4084504454940225 0.4084504454940225 
0.4084504454940225 0.393702419091901 0.393702419091901 0.393702419091901 0.393702419091901 0.3777288790633986 0.3777288790633986 0.3777288790633986 0.3777288790633986 
0.3608961536167282 0.3608961536167282 0.3608961536167282 0.3608961536167282 0.3437344630850967 0.3437344630850967 0.3437344630850967 0.3437344630850967 0.3269105490497022 
0.3269105490497022 0.3269105490497022 0.3269105490497022 0.3111469648874567 0.3111469648874567 0.3111469648874567 0.3111469648874567 0.2970919246254442 0.2970919246254442 
0.2970919246254442 0.2970919246254442 0.2851768210442199 0.2851768210442199 0.2851768210442199 0.2851768210442199 0.2755221720680119 0.2755221720680119 0.2755221720680119 
0.2755221720680119 0.2679369183374452 0.2679369183374452 0.2679369183374452 0.2679369183374452 0.262003587748347 0.262003587748347 0.262003587748347 0.262003587748347 
0.2571973529569069 0.2571973529569069 0.2571973529569069 0.2571973529569069 0.2529855706847285 0.2529855706847285 0.2529855706847285 0.2529855706847285 0.2488840259222531 
0.2488840259222531 0.2488840259222531 0.2488840259222531 0.2444742960018112 0.2444742960018112 0.2444742960018112 0.2444742960018112 0.239397986712968 0.239397986712968 
0.239397986712968 0.239397986712968 0.2333422012241845 0.2333422012241845 0.2333422012241845 0.2333422012241845 0.2260251216508983 0.2260251216508983 0.2260251216508983 
0.2260251216508983 0.2171859065658996 0.2171859065658996 0.2171859065658996 0.2171859065658996 0.2065804437460247 0.2065804437460247 0.2065804437460247 0.2065804437460247 
0.1939835451268624 0.1939835451268624 0.1939835451268624 0.1939835451268624 0.1791984874954927 0.1791984874954927 0.1791984874954927 0.1791984874954927 0.1620763827652856 
0.1620763827652856 0.1620763827652856 0.1620763827652856 0.1425516664923064 0.1425516664923064 0.1425516664923064 0.1425516664923064 0.1207085181594237 0.1207085181594237 
0.1207085181594237 0.1207085181594237 0.09690749044275962 0.09690749044275962 0.09690749044275962 0.09690749044275962 0.07200387152121046 0.07200387152121046 0.07200387152121046 
0.07200387152121046 0.04761097675770574 0.04761097675770574 0.04761097675770574 0.04761097675770574 0.0262134533190009 0.0262134533190009 0.0262134533190009 0.0262134533190009 
0.01167691136470495 0.01167691136470495 0.01167691136470495 0.01167691136470495 0.006645465303958321 0.006645465303958321 0.006645465303958321 0.006645465303958321 0.001978279880622935 
0.001978279880622935 0.001978279880622935 0.001978279880622935 -0.01979733259111832 -0.01979733259111832 -0.01979733259111832 -0.01979733259111832 -0.04662297539982103 -0.04662297539982103 
-0.04662297539982103 -0.04662297539982103 -0.07401507743113028 -0.07401507743113028 -0.07401507743113028 -0.07401507743113028 -0.1000651375966587 -0.1000651375966587 -0.1000651375966587 
-0.1000651375966587 -0.1239231422488317 -0.1239231422488317 -0.1239231422488317 -0.1239231422488317 -0.1452492580975166 -0.1452492580975166 -0.1452492580975166 -0.1452492580975166 
-0.1639691528246127 -0.1639691528246127 -0.1639691528246127 -0.1639691528246127 -0.1801566515537786 -0.1801566515537786 -0.1801566515537786 -0.1801566515537786 -0.1939723579031494 
-0.1939723579031494 -0.1939723579031494 -0.1939723579031494 -0.2056288624778585 -0.2056288624778585 -0.2056288624778585 -0.2056288624778585 -0.2153706642793289 -0.2153706642793289 
-0.2153706642793289 -0.2153706642793289 -0.2234638570507135 -0.2234638570507135 -0.2234638570507135 -0.2234638570507135 -0.2301934796956277 -0.2301934796956277 -0.2301934796956277 
-0.2301934796956277 -0.2358674826176532 -0.2358674826176532 -0.2358674826176532 -0.2358674826176532 -0.2408261455642081 -0.2408261455642081 -0.2408261455642081 -0.2408261455642081 
-0.2454544883824791 -0.2454544883824791 -0.2454544883824791 -0.2454544883824791 -0.2501924527900942 -0.2501924527900942 -0.2501924527900942 -0.2501924527900942 -0.2555334832080726 
-0.2555334832080726 -0.2555334832080726 -0.2555334832080726 -0.2619984547616668 -0.2619984547616668 -0.2619984547616668 -0.2619984547616668 -0.2700737833528505 -0.2700737833528505 
-0.2700737833528505 -0.2700737833528505 -0.2801165500082735 -0.2801165500082735 -0.2801165500082735 -0.2801165500082735 -0.2922547093729516 -0.2922547093729516 -0.2922547093729516 
-0.2922547093729516 -0.3063292947464277 -0.3063292947464277 -0.3063292947464277 -0.3063292947464277 -0.3219141921620292 -0.3219141921620292 -0.3219141921620292 -0.3219141921620292 
-0.3384084963167616 -0.3384084963167616 -0.3384084963167616 -0.3384084963167616 -0.355159577640517 -0.355159577640517 -0.355159577640517 -0.355159577640517 -0.3715698700087259 
-0.3715698700087259 -0.3715698700087259 -0.3715698700087259 -0.3871617766995637 -0.3871617766995637 -0.3871617766995637 -0.3871617766995637 -0.401599834784475 -0.401599834784475 
-0.401599834784475 -0.401599834784475 -0.4146828174120474 -0.4146828174120474 -0.4146828174120474 -0.4146828174120474 -0.4263205048356081 -0.4263205048356081 -0.4263205048356081 
-0.4263205048356081 -0.4365061206967374 -0.4365061206967374 -0.4365061206967374 -0.4365061206967374 -0.4452906838385121 -0.4452906838385121 -0.4452906838385121 -0.4452906838385121 
-0.4527619052008052 -0.4527619052008052 -0.4527619052008052 -0.4527619052008052 -0.4590281160903985 -0.4590281160903985 -0.4590281160903985 -0.4590281160903985 -0.4642066958819678 
-0.4642066958819678 -0.4642066958819678 -0.4642066958819678 -0.4684161237494563 -0.4684161237494563 -0.4684161237494563 -0.4684161237494563 -0.4717707733754631 -0.4717707733754631 
-0.4717707733754631 -0.4717707733754631 -0.4743776996795515 -0.4743776996795515 -0.4743776996795515 -0.4743776996795515 -0.4763348287152076 -0.4763348287152076 -0.4763348287152076 
-0.4763348287152076 -0.4777301108082582 -0.4777301108082582 -0.4777301108082582 -0.4777301108082582 -0.4786413179571491 -0.4786413179571491 -0.4786413179571491 -0.4786413179571491 
-0.4791362585644612 -0.4791362585644612 -0.4791362585644612 -0.4791362585644612 -0.479273250001908 -0.479273250001908 -0.479273250001908 -0.479273250001908 -0.4791017684124894 
-0.4791017684124894 -0.4791017684124894 -0.4791017684124894 -0.4786632268444644 -0.4786632268444644 -0.4786632268444644 -0.4786632268444644 -0.4779915094993377 -0.4779915094993377 
-0.4779915094993377 -0.4779915094993377 -0.477113651690655 -0.477113651690655 -0.477113651690655 -0.477113651690655 -0.4760505118873042 -0.4760505118873042 -0.4760505118873042 
-0.4760505118873042 -0.4748173762086021 -0.4748173762086021 -0.4748173762086021 -0.4748173762086021 -0.4734244880704195 -0.4734244880704195 -0.4734244880704195 -0.4734244880704195 
-0.4718775012470029 -0.4718775012470029 -0.4718775012470029 -0.4718775012470029 -0.4701778573317756 -0.4701778573317756 -0.4701778573317756 -0.4701778573317756 -0.468323090705925 
-0.468323090705925 -0.468323090705925 -0.468323090705925 -0.4663070660025051 -0.4663070660025051 -0.4663070660025051 -0.4663070660025051 -0.4641201555341338 -0.4641201555341338 
-0.4641201555341338 -0.4641201555341338 -0.4617494331598002 -0.4617494331598002 -0.4617494331598002 -0.4617494331598002 -0.4591787709513651 -0.4591787709513651 -0.4591787709513651 
-0.4591787709513651 -0.4563888663056775 -0.4563888663056775 -0.4563888663056775 -0.4563888663056775 -0.4533572907446545 -0.4533572907446545 -0.4533572907446545 -0.4533572907446545 
-0.4500585348764723 -0.4500585348764723 -0.4500585348764723 -0.4500585348764723 -0.446464065420218 -0.446464065420218 -0.446464065420218 -0.446464065420218 -0.4425424120985942 
-0.4425424120985942 -0.4425424120985942 -0.4425424120985942 -0.43825930463765 -0.43825930463765 -0.43825930463765 -0.43825930463765 -0.4335778826712662 -0.4335778826712662 
-0.4335778826712662 -0.4335778826712662 -0.4284590042454957 -0.4284590042454957 -0.4284590042454957 -0.4284590042454957 -0.422861682301005 -0.422861682301005 -0.422861682301005 
-0.422861682301005 -0.4167436824503946 -0.4167436824503946 -0.4167436824503946 -0.4167436824503946 -0.410062319453205 -0.410062319453205 -0.410062319453205 -0.410062319453205 
-0.402775493779709 -0.402775493779709 -0.402775493779709 -0.402775493779709 -0.3948430130383837 -0.3948430130383837 -0.3948430130383837 -0.3948430130383837 -0.386228244926683 
-0.386228244926683 -0.386228244926683 -0.386228244926683 -0.3769001473118281 -0.3769001473118281 -0.3769001473118281 -0.3769001473118281 -0.3668357148574909 -0.3668357148574909 
-0.3668357148574909 -0.3668357148574909 -0.3560228669611202 -0.3560228669611202 -0.3560228669611202 -0.3560228669611202 -0.3444637737860299 -0.3444637737860299 -0.3444637737860299 
-0.3444637737860299 -0.3321785689997671 -0.3321785689997671 -0.3321785689997671 -0.3321785689997671 -0.3192093203006714 -0.3192093203006714 -0.3192093203006714 -0.3192093203006714 
-0.3056240106867834 -0.3056240106867834 -0.3056240106867834 -0.3056240106867834 -0.2915201129925478 -0.2915201129925478 -0.2915201129925478 -0.2915201129925478 -0.27702710989843 
-0.27702710989843 -0.27702710989843 -0.27702710989843 -0.2623070279506705 -0.2623070279506705 -0.2623070279506705 -0.2623070279506705 -0.2475517561721769 -0.2475517561721769 
-0.2475517561721769 -0.2475517561721769 -0.2329757066224353 -0.2329757066224353 -0.2329757066224353 -0.2329757066224353 -0.2188024324917675 -0.2188024324917675 -0.2188024324917675 
-0.2188024324917675 -0.2052444199893496 -0.2052444199893496 -0.2052444199893496 -0.2052444199893496 -0.1924766700488589 -0.1924766700488589 -0.1924766700488589 -0.1924766700488589 
-0.1806068657604974 -0.1806068657604974 -0.1806068657604974 -0.1806068657604974 -0.1696472159761072 -0.1696472159761072 -0.1696472159761072 -0.1696472159761072 -0.1594940330920531 
-0.1594940330920531 -0.1594940330920531 -0.1594940330920531 -0.1499191795799431 -0.1499191795799431 -0.1499191795799431 -0.1499191795799431 -0.1405724042049448 -0.1405724042049448 
-0.1405724042049448 -0.1405724042049448 -0.1309869625089993 -0.1309869625089993 -0.1309869625089993 -0.1309869625089993 -0.1205747692374539 -0.1205747692374539 -0.1205747692374539 
-0.1205747692374539 -0.1085901044507125 -0.1085901044507125 -0.1085901044507125 -0.1085901044507125 -0.09402142153246271 -0.09402142153246271 -0.09402142153246271 -0.09402142153246271 
-0.0752964570060819 -0.0752964570060819 -0.0752964570060819 -0.0752964570060819 -0.0493396549444449 -0.0493396549444449 -0.0493396549444449 -0.0493396549444449 -0.007067187098439327 
-0.007067187098439327 -0.007067187098439327 -0.007067187098439327 0.04321919619340132 0.04321919619340132 0.04321919619340132 0.04321919619340132 0.07235683624893811 0.07235683624893811 
0.07235683624893811 0.07235683624893811 0.09310076704224141 0.09310076704224141 0.09310076704224141 0.09310076704224141 0.1091124172680779 0.1091124172680779 0.1091124172680779 
0.1091124172680779 0.1221199108781213 0.1221199108781213 0.1221199108781213 0.1221199108781213 0.1331858867592755 0.1331858867592755 0.1331858867592755 0.1331858867592755 
0.1430752086131261 0.1430752086131261 0.1430752086131261 0.1430752086131261 0.1523900743976869 0.1523900743976869 0.1523900743976869 0.1523900743976869 0.1616216990478432 
0.1616216990478432 0.1616216990478432 0.1616216990478432 0.1711646956837682 0.1711646956837682 0.1711646956837682 0.1711646956837682 0.181314240029502 0.181314240029502 
0.181314240029502 0.181314240029502 0.1922587781616304 0.1922587781616304 0.1922587781616304 0.1922587781616304 0.2040775304553941 0.2040775304553941 0.2040775304553941 
0.2040775304553941 0.2167479080542838 0.2167479080542838 0.2167479080542838 0.2167479080542838 0.2301631255180756 0.2301631255180756 0.2301631255180756 0.2301631255180756 
0.2441564942738856 0.2441564942738856 0.2441564942738856 0.2441564942738856 0.2585274073430979 0.2585274073430979 0.2585274073430979 0.2585274073430979 0.2730647277359562 
0.2730647277359562 0.2730647277359562 0.2730647277359562 0.287565075121578 0.287565075121578 0.287565075121578 0.287565075121578 0.3018452868049559 0.3018452868049559 
0.3018452868049559 0.3018452868049559 0.3157495511630828 0.3157495511630828 0.3157495511630828 0.3157495511630828 0.3291523019687776 0.3291523019687776 0.3291523019687776 
0.3291523019687776 0.3419580878331896 0.3419580878331896 0.3419580878331896 0.3419580878331896 0.3540994998697392 0.3540994998697392 0.3540994998697392 0.3540994998697392 
0.3655340099713882 0.3655340099713882 0.3655340099713882 0.3655340099713882 0.3762403337885728 0.3762403337885728 0.3762403337885728 0.3762403337885728 0.386214728678314 