Title = Quad200
FileType = Solution
Variables = q
Zone T = Quad200
ZoneType = FETriangle
Nodes = 160000
Elements = 80000
DataPacking = Block
StrandID = 2
SolutionTime = 0.1
0.0002466675064380004 0.0002466675064380004 0.0002466675064380004 0.0002466675064380004 0.0007344562536600172 0.0007344562536600172 0.0007344562536600172 0.0007344562536600172 0.001220413743574619 0.001220413743574619 
0.001220413743574619 0.001220413743574619 0.00170367632642776 0.00170367632642776 0.00170367632642776 0.00170367632642776 0.002183425556512692 0.002183425556512692 0.002183425556512692 
0.002183425556512692 0.002658898854121259 0.002658898854121259 0.002658898854121259 0.002658898854121259 0.0031293878220324 0.0031293878220324 0.0031293878220324 0.0031293878220324 
0.003594236293902904 0.003594236293902904 0.003594236293902904 0.003594236293902904 0.004052838207268946 0.004052838207268946 0.004052838207268946 0.004052838207268946 0.004504635347108833 
0.004504635347108833 0.004504635347108833 0.004504635347108833 0.004949115000094196 0.004949115000094196 0.004949115000094196 0.004949115000094196 0.005385807554431809 0.005385807554431809 
0.005385807554431809 0.005385807554431809 0.005814284075356711 0.005814284075356711 0.005814284075356711 0.005814284075356711 0.006234153881892681 0.006234153881892681 0.006234153881892681 
0.006234153881892681 0.006645062146452007 0.006645062146452007 0.006645062146452007 0.006645062146452007 0.007046687535198864 0.007046687535198864 0.007046687535198864 0.007046687535198864 
0.007438739903836004 0.007438739903836004 0.007438739903836004 0.007438739903836004 0.007820958060577332 0.007820958060577332 0.007820958060577332 0.007820958060577332 0.008193107605516916 
0.008193107605516916 0.008193107605516916 0.008193107605516916 0.008554978853374718 0.008554978853374718 0.008554978853374718 0.008554978853374718 0.008906384844668869 0.008906384844668869 
0.008906384844668869 0.008906384844668869 0.009247159448702729 0.009247159448702729 0.009247159448702729 0.009247159448702729 0.009577155560343498 0.009577155560343498 0.009577155560343498 
0.009577155560343498 0.009896243391379921 0.009896243391379921 0.009896243391379921 0.009896243391379921 0.01020430885625424 0.01020430885625424 0.01020430885625424 0.01020430885625424 
0.01050125205115256 0.01050125205115256 0.01050125205115256 0.01050125205115256 0.01078698582477934 0.01078698582477934 0.01078698582477934 0.01078698582477934 0.01106143443862241 
0.01106143443862241 0.01106143443862241 0.01106143443862241 0.01132453231411655 0.01132453231411655 0.01132453231411655 0.01132453231411655 0.01157622286381532 0.01157622286381532 
0.01157622286381532 0.01157622286381532 0.01181645740347586 0.01181645740347586 0.01181645740347586 0.01181645740347586 0.01204519414183278 0.01204519414183278 0.01204519414183278 
0.01204519414183278 0.01226239724476878 0.01226239724476878 0.01226239724476878 0.01226239724476878 0.01246803597058471 0.01246803597058471 0.01246803597058471 0.01246803597058471 
0.01266208387310358 0.01266208387310358 0.01266208387310358 0.01266208387310358 0.01284451806942328 0.01284451806942328 0.01284451806942328 0.01284451806942328 0.0130153185692333 
0.0130153185692333 0.0130153185692333 0.0130153185692333 0.01317446766274992 0.01317446766274992 0.01317446766274992 0.01317446766274992 0.01332194936447166 0.01332194936447166 
0.01332194936447166 0.01332194936447166 0.0134577489101332 0.0134577489101332 0.0134577489101332 0.0134577489101332 0.01358185230441481 0.01358185230441481 0.01358185230441481 
0.01358185230441481 0.01369424591716145 0.01369424591716145 0.01369424591716145 0.01369424591716145 0.01379491612606761 0.01379491612606761 0.01379491612606761 0.01379491612606761 
0.01388384900398975 0.01388384900398975 0.01388384900398975 0.01388384900398975 0.0139610300492655 0.0139610300492655 0.0139610300492655 0.0139610300492655 0.01402644395765157 
0.01402644395765157 0.01402644395765157 0.01402644395765157 0.01408007443510803 0.01408007443510803 0.01408007443510803 0.01408007443510803 0.0141219040590804 0.0141219040590804 
0.0141219040590804 0.0141219040590804 0.0141519143567391 0.0141519143567391 0.0141519143567391 0.0141519143567391 0.0141700890073989 0.0141700890073989 0.0141700890073989 
0.0141700890073989 0.01417578333097209 0.01417578333097209 0.01417578333097209 0.01417578333097209 0.01416892068494715 0.01416892068494715 0.01416892068494715 0.01416892068494715 
0.01415010499964938 0.01415010499964938 0.01415010499964938 0.01415010499964938 0.01411937120847506 0.01411937120847506 0.01411937120847506 0.01411937120847506 0.01407670425631521 
0.01407670425631521 0.01407670425631521 0.01407670425631521 0.01402208460855744 0.01402208460855744 0.01402208460855744 0.01402208460855744 0.01395549159319531 0.01395549159319531 
0.01395549159319531 0.01395549159319531 0.01387690379056461 0.01387690379056461 0.01387690379056461 0.01387690379056461 0.01378629928550095 0.01378629928550095 0.01378629928550095 
0.01378629928550095 0.01368365595444192 0.01368365595444192 0.01368365595444192 0.01368365595444192 0.01356895179895669 0.01356895179895669 0.01356895179895669 0.01356895179895669 
0.01344216532843946 0.01344216532843946 0.01344216532843946 0.01344216532843946 0.01330327599441919 0.01330327599441919 0.01330327599441919 0.01330327599441919 0.01315226467912653 
0.01315226467912653 0.01315226467912653 0.01315226467912653 0.01298911424117538 0.01298911424117538 0.01298911424117538 0.01298911424117538 0.01281381012142849 0.01281381012142849 
0.01281381012142849 0.01281381012142849 0.01262634101231458 0.01262634101231458 0.01262634101231458 0.01262634101231458 0.01242669959405296 0.01242669959405296 0.01242669959405296 
0.01242669959405296 0.01221488334140381 0.01221488334140381 0.01221488334140381 0.01221488334140381 0.01199089540470659 0.01199089540470659 0.01199089540470659 0.01199089540470659 
0.01175474556907626 0.01175474556907626 0.01175474556907626 0.01175474556907626 0.01150645129570307 0.01150645129570307 0.01150645129570307 0.01150645129570307 0.01124603884922186 
0.01124603884922186 0.01124603884922186 0.01124603884922186 0.01097354451509247 0.01097354451509247 0.01097354451509247 0.01097354451509247 0.01068901591082884 0.01068901591082884 
0.01068901591082884 0.01068901591082884 0.01039251339474096 0.01039251339474096 0.01039251339474096 0.01039251339474096 0.010084111575578 0.010084111575578 0.010084111575578 
0.010084111575578 0.009763900926080945 0.009763900926080945 0.009763900926080945 0.009763900926080945 0.009431989502938882 0.009431989502938882 0.009431989502938882 0.009431989502938882 
0.009088504774985174 0.009088504774985174 0.009088504774985174 0.009088504774985174 0.008733595560638251 0.008733595560638251 0.008733595560638251 0.008733595560638251 0.008367434074567746 
0.008367434074567746 0.008367434074567746 0.008367434074567746 0.007990218082320425 0.007990218082320425 0.007990218082320425 0.007990218082320425 0.007602173160147897 0.007602173160147897 
0.007602173160147897 0.007602173160147897 0.00720355505550732 0.00720355505550732 0.00720355505550732 0.00720355505550732 0.00679465214162771 0.00679465214162771 0.00679465214162771 
0.00679465214162771 0.006375787957117172 0.006375787957117172 0.006375787957117172 0.006375787957117172 0.005947323818799685 0.005947323818799685 0.005947323818799685 0.005947323818799685 
0.005509661492783304 0.005509661492783304 0.005509661492783304 0.005509661492783304 0.005063245905146635 0.005063245905146635 0.005063245905146635 0.005063245905146635 0.004608567869566158 
0.004608567869566158 0.004608567869566158 0.004608567869566158 0.004146166804669778 0.004146166804669778 0.004146166804669778 0.004146166804669778 0.00367663340888696 0.00367663340888696 
0.00367663340888696 0.00367663340888696 0.003200612255068679 0.003200612255068679 0.003200612255068679 0.003200612255068679 0.002718804261187013 0.002718804261187013 0.002718804261187013 
0.002718804261187013 0.002231968987023354 0.002231968987023354 0.002231968987023354 0.002231968987023354 0.001740926699970547 0.001740926699970547 0.001740926699970547 0.001740926699970547 
0.001246560145855413 0.001246560145855413 0.001246560145855413 0.001246560145855413 0.0007498158815898671 0.0007498158815898671 0.0007498158815898671 0.0007498158815898671 0.0002516654059506858 
0.0002516654059506858 0.0002516654059506858 0.0002516654059506858 -0.0002574281603394714 -0.0002574281603394714 -0.0002574281603394714 -0.0002574281603394714 -0.0007991489955248605 -0.0007991489955248605 
-0.0007991489955248605 -0.0007991489955248605 -0.001385693284238705 -0.001385693284238705 -0.001385693284238705 -0.001385693284238705 -0.002019575216092007 -0.002019575216092007 -0.002019575216092007 
-0.002019575216092007 -0.002703399720795092 -0.002703399720795092 -0.002703399720795092 -0.002703399720795092 -0.003439892418672757 -0.003439892418672757 -0.003439892418672757 -0.003439892418672757 
-0.004231901451465845 -0.004231901451465845 -0.004231901451465845 -0.004231901451465845 -0.005082397012266537 -0.005082397012266537 -0.005082397012266537 -0.005082397012266537 -0.005994467851183939 
-0.005994467851183939 -0.005994467851183939 -0.005994467851183939 -0.006971313758119522 -0.006971313758119522 -0.006971313758119522 -0.006971313758119522 -0.008016232786879414 -0.008016232786879414 
-0.008016232786879414 -0.008016232786879414 -0.009132601707481645 -0.009132601707481645 -0.009132601707481645 -0.009132601707481645 -0.01032384785634971 -0.01032384785634971 -0.01032384785634971 
-0.01032384785634971 -0.01159341020361607 -0.01159341020361607 -0.01159341020361607 -0.01159341020361607 -0.01294468708904575 -0.01294468708904575 -0.01294468708904575 -0.01294468708904575 
-0.0143809677240136 -0.0143809677240136 -0.0143809677240136 -0.0143809677240136 -0.01590534426913557 -0.01590534426913557 -0.01590534426913557 -0.01590534426913557 -0.01752060115734465 
-0.01752060115734465 -0.01752060115734465 -0.01752060115734465 -0.01922907845845276 -0.01922907845845276 -0.01922907845845276 -0.01922907845845276 -0.02103250662986545 -0.02103250662986545 
-0.02103250662986545 -0.02103250662986545 -0.02293181115651951 -0.02293181115651951 -0.02293181115651951 -0.02293181115651951 -0.02492688754475514 -0.02492688754475514 -0.02492688754475514 
-0.02492688754475514 -0.02701635005185731 -0.02701635005185731 -0.02701635005185731 -0.02701635005185731 -0.02919726144395548 -0.02919726144395548 -0.02919726144395548 -0.02919726144395548 
-0.03146485581891319 -0.03146485581891319 -0.03146485581891319 -0.03146485581891319 -0.0338122716716607 -0.0338122716716607 -0.0338122716716607 -0.0338122716716607 -0.03623031717828394 
-0.03623031717828394 -0.03623031717828394 -0.03623031717828394 -0.03870729315009162 -0.03870729315009162 -0.03870729315009162 -0.03870729315009162 -0.04122890020160711 -0.04122890020160711 
-0.04122890020160711 -0.04122890020160711 -0.04377825450980088 -0.04377825450980088 -0.04377825450980088 -0.04377825450980088 -0.04633603070236765 -0.04633603070236765 -0.04633603070236765 
-0.04633603070236765 -0.04888074116531069 -0.04888074116531069 -0.04888074116531069 -0.04888074116531069 -0.05138914940098739 -0.05138914940098739 -0.05138914940098739 -0.05138914940098739 
-0.05383680257688324 -0.05383680257688324 -0.05383680257688324 -0.05383680257688324 -0.0561986569205806 -0.0561986569205806 -0.0561986569205806 -0.0561986569205806 -0.05844976082947878 
-0.05844976082947878 -0.05844976082947878 -0.05844976082947878 -0.0605659556585197 -0.0605659556585197 -0.0605659556585197 -0.0605659556585197 -0.06252455358623399 -0.06252455358623399 
-0.06252455358623399 -0.06252455358623399 -0.0643049554535115 -0.0643049554535115 -0.0643049554535115 -0.0643049554535115 -0.06588917814094256 -0.06588917814094256 -0.06588917814094256 
-0.06588917814094256 -0.06726226968019075 -0.06726226968019075 -0.06726226968019075 -0.06726226968019075 -0.06841259960623694 -0.06841259960623694 -0.06841259960623694 -0.06841259960623694 
-0.06933202095237068 -0.06933202095237068 -0.06933202095237068 -0.06933202095237068 -0.07001590801300386 -0.07001590801300386 -0.07001590801300386 -0.07001590801300386 -0.0704630801763754 
-0.0704630801763754 -0.0704630801763754 -0.0704630801763754 -0.07067562608548442 -0.07067562608548442 -0.07067562608548442 -0.07067562608548442 -0.07065862920350516 -0.07065862920350516 
-0.07065862920350516 -0.07065862920350516 -0.07041981632546084 -0.07041981632546084 -0.07041981632546084 -0.07041981632546084 -0.06996853860561507 -0.06996853860561507 -0.06996853860561507 
-0.06996853860561507 -0.06930741761839501 -0.06930741761839501 -0.06930741761839501 -0.06930741761839501 -0.06835733417664708 -0.06835733417664708 -0.06835733417664708 -0.06835733417664708 
-0.0671473456863149 -0.0671473456863149 -0.0671473456863149 -0.0671473456863149 -0.0657921528551926 -0.0657921528551926 -0.0657921528551926 -0.0657921528551926 -0.06431007146403611 
-0.06431007146403611 -0.06431007146403611 -0.06431007146403611 -0.06272072235870059 -0.06272072235870059 -0.06272072235870059 -0.06272072235870059 -0.06104306500622166 -0.06104306500622166 
-0.06104306500622166 -0.06104306500622166 -0.05929490810067443 -0.05929490810067443 -0.05929490810067443 -0.05929490810067443 -0.05749260545332979 -0.05749260545332979 -0.05749260545332979 
-0.05749260545332979 -0.05565084308968307 -0.05565084308968307 -0.05565084308968307 -0.05565084308968307 -0.05378251161428833 -0.05378251161428833 -0.05378251161428833 -0.05378251161428833 
-0.05189866155500378 -0.05189866155500378 -0.05189866155500378 -0.05189866155500378 -0.05000853714849869 -0.05000853714849869 -0.05000853714849869 -0.05000853714849869 -0.04811968040860673 
-0.04811968040860673 -0.04811968040860673 -0.04811968040860673 -0.04623809390417406 -0.04623809390417406 -0.04623809390417406 -0.04623809390417406 -0.04436844782604597 -0.04436844782604597 
-0.04436844782604597 -0.04436844782604597 -0.04251431496952168 -0.04251431496952168 -0.04251431496952168 -0.04251431496952168 -0.04067841647982807 -0.04067841647982807 -0.04067841647982807 
-0.04067841647982807 -0.03886286177627234 -0.03886286177627234 -0.03886286177627234 -0.03886286177627234 -0.03706936799452101 -0.03706936799452101 -0.03706936799452101 -0.03706936799452101 
-0.03529944738733196 -0.03529944738733196 -0.03529944738733196 -0.03529944738733196 -0.03355455504704362 -0.03355455504704362 -0.03355455504704362 -0.03355455504704362 -0.03183619358005172 
-0.03183619358005172 -0.03183619358005172 -0.03183619358005172 -0.03014597545502402 -0.03014597545502402 -0.03014597545502402 -0.03014597545502402 -0.02848564719661172 -0.02848564719661172 
-0.02848564719661172 -0.02848564719661172 -0.02685708207355903 -0.02685708207355903 -0.02685708207355903 -0.02685708207355903 -0.02526224928568294 -0.02526224928568294 -0.02526224928568294 
-0.02526224928568294 -0.02370316792687205 -0.02370316792687205 -0.02370316792687205 -0.02370316792687205 -0.02218185338115858 -0.02218185338115858 -0.02218185338115858 -0.02218185338115858 
-0.02070026257512721 -0.02070026257512721 -0.02070026257512721 -0.02070026257512721 -0.01926024296300614 -0.01926024296300614 -0.01926024296300614 -0.01926024296300614 -0.01786348852557227 
-0.01786348852557227 -0.01786348852557227 -0.01786348852557227 -0.01651150461565812 -0.01651150461565812 -0.01651150461565812 -0.01651150461565812 -0.01520558229628978 -0.01520558229628978 
-0.01520558229628978 -0.01520558229628978 -0.01394678193504452 -0.01394678193504452 -0.01394678193504452 -0.01394678193504452 -0.01273592522945256 -0.01273592522945256 -0.01273592522945256 
-0.01273592522945256 -0.01157359450072881 -0.01157359450072881 -0.01157359450072881 -0.01157359450072881 -0.01046013795085008 -0.01046013795085008 -0.01046013795085008 -0.01046013795085008 
-0.009395679574744666 -0.009395679574744666 -0.009395679574744666 -0.009395679574744666 -0.008380132506129083 -0.008380132506129083 -0.008380132506129083 -0.008380132506129083 -0.007413214713447846 
-0.007413214713447846 -0.007413214713447846 -0.007413214713447846 -0.00649446612317687 -0.00649446612317687 -0.00649446612317687 -0.00649446612317687 -0.005623266412177163 -0.005623266412177163 
-0.005623266412177163 -0.005623266412177163 -0.004798852866782307 -0.004798852866782307 -0.004798852866782307 -0.004798852866782307 -0.004020337847111515 -0.004020337847111515 -0.004020337847111515 
-0.004020337847111515 -0.003286725517591337 -0.003286725517591337 -0.003286725517591337 -0.003286725517591337 -0.002596927608118723 -0.002596927608118723 -0.002596927608118723 -0.002596927608118723 
-0.001949778055433736 -0.001949778055433736 -0.001949778055433736 -0.001949778055433736 -0.001344046442628707 -0.001344046442628707 -0.001344046442628707 -0.001344046442628707 -0.0007784502077136466 
-0.0007784502077136466 -0.0007784502077136466 -0.0007784502077136466 -0.000251665405950695 -0.000251665405950695 -0.000251665405950695 -0.000251665405950695 0.0007344562536600167 0.0007344562536600167 
0.0007344562536600167 0.0007344562536600167 0.002134589909163463 0.002134589909163463 0.002134589909163463 0.002134589909163463 0.00349859249121242 0.00349859249121242 0.00349859249121242 
0.00349859249121242 0.004826914284028747 0.004826914284028747 0.004826914284028747 0.004826914284028747 0.006119917695202056 0.006119917695202056 0.006119917695202056 0.006119917695202056 
0.007377979725791368 0.007377979725791368 0.007377979725791368 0.007377979725791368 0.008601489476356706 0.008601489476356706 0.008601489476356706 0.008601489476356706 0.009790845106354055 
0.009790845106354055 0.009790845106354055 0.009790845106354055 0.0109464511465963 0.0109464511465963 0.0109464511465963 0.0109464511465963 0.01206871613483276 0.01206871613483276 
0.01206871613483276 0.01206871613483276 0.01315805053618075 0.01315805053618075 0.01315805053618075 0.01315805053618075 0.0142148649141389 0.0142148649141389 0.0142148649141389 
0.0142148649141389 0.01523956832176704 0.01523956832176704 0.01523956832176704 0.01523956832176704 0.01623256688612332 0.01623256688612332 0.01623256688612332 0.01623256688612332 
0.01719426256221623 0.01719426256221623 0.01719426256221623 0.01719426256221623 0.01812505203556955 0.01812505203556955 0.01812505203556955 0.01812505203556955 0.0190253257550367 
0.0190253257550367 0.0190253257550367 0.0190253257550367 0.01989546707975548 0.01989546707975548 0.01989546707975548 0.01989546707975548 0.02073585152613006 0.02073585152613006 
0.02073585152613006 0.02073585152613006 0.02154684610248779 0.02154684610248779 0.02154684610248779 0.02154684610248779 0.02232880872060468 0.02232880872060468 0.02232880872060468 
0.02232880872060468 0.02308208767464941 0.02308208767464941 0.02308208767464941 0.02308208767464941 0.02380702117928085 0.02380702117928085 0.02380702117928085 0.02380702117928085 
0.02450393695966709 0.02450393695966709 0.02450393695966709 0.02450393695966709 0.02517315188709352 0.02517315188709352 0.02517315188709352 0.02517315188709352 0.02581497165460982 
0.02581497165460982 0.02581497165460982 0.02581497165460982 0.02642969048784326 0.02642969048784326 0.02642969048784326 0.02642969048784326 0.02701759088669707 0.02701759088669707 
0.02701759088669707 0.02701759088669707 0.02757894339415837 0.02757894339415837 0.02757894339415837 0.02757894339415837 0.02811400638888745 0.02811400638888745 0.02811400638888745 
0.02811400638888745 0.02862302589864252 0.02862302589864252 0.02862302589864252 0.02862302589864252 0.02910623543192407 0.02910623543192407 0.02910623543192407 0.02910623543192407 
0.02956385582551946 0.02956385582551946 0.02956385582551946 0.02956385582551946 0.02999609510587259 0.02999609510587259 0.02999609510587259 0.02999609510587259 0.03040314836243314 
0.03040314836243314 0.03040314836243314 0.03040314836243314 0.03078519763132318 0.03078519763132318 0.03078519763132318 0.03078519763132318 0.03114241178783946 0.03114241178783946 
0.03114241178783946 0.03114241178783946 0.03147494644645069 0.03147494644645069 0.03147494644645069 0.03147494644645069 0.0317829438670897 0.0317829438670897 0.0317829438670897 
0.0317829438670897 0.03206653286665623 0.03206653286665623 0.03206653286665623 0.03206653286665623 0.03232582873475522 0.03232582873475522 0.03232582873475522 0.03232582873475522 
0.03256093315279358 0.03256093315279358 0.03256093315279358 0.03256093315279358 0.03277193411564755 0.03277193411564755 0.03277193411564755 0.03277193411564755 0.03295890585519656 
0.03295890585519656 0.03295890585519656 0.03295890585519656 0.03312190876509594 0.03312190876509594 0.03312190876509594 0.03312190876509594 0.03326098932623672 0.03326098932623672 
0.03326098932623672 0.03326098932623672 0.03337618003243469 0.03337618003243469 0.03337618003243469 0.03337618003243469 0.03346749931649155 0.03346749931649155 0.03346749931649155 
0.03346749931649155 0.033534951488864 0.033534951488864 0.033534951488864 0.033534951488864 0.03357852693772035 0.03357852693772035 0.03357852693772035 0.03357852693772035 
0.03359812378364588 0.03359812378364588 0.03359812378364588 0.03359812378364588 0.03359368072873045 0.03359368072873045 0.03359368072873045 0.03359368072873045 0.03356522324168597 
0.03356522324168597 0.03356522324168597 0.03356522324168597 0.03351270471982191 0.03351270471982191 0.03351270471982191 0.03351270471982191 0.03343604771343857 0.03343604771343857 
0.03343604771343857 0.03343604771343857 0.03333515726724234 0.03333515726724234 0.03333515726724234 0.03333515726724234 0.0332099231877876 0.0332099231877876 0.0332099231877876 
0.0332099231877876 0.03306022029595936 0.03306022029595936 0.03306022029595936 0.03306022029595936 0.03288590837758366 0.03288590837758366 0.03288590837758366 0.03288590837758366 
0.03268683209330697 0.03268683209330697 0.03268683209330697 0.03268683209330697 0.03246282088465115 0.03246282088465115 0.03246282088465115 0.03246282088465115 0.03221368888196313 
0.03221368888196313 0.03221368888196313 0.03221368888196313 0.03193923481593888 0.03193923481593888 0.03193923481593888 0.03193923481593888 0.03163924193402493 0.03163924193402493 
0.03163924193402493 0.03163924193402493 0.03131347792311963 0.03131347792311963 0.03131347792311963 0.03131347792311963 0.03096169484019966 0.03096169484019966 0.03096169484019966 
0.03096169484019966 0.03058362905274068 0.03058362905274068 0.03058362905274068 0.03058362905274068 0.03017900119106462 0.03017900119106462 0.03017900119106462 0.03017900119106462 
0.02974751611505598 0.02974751611505598 0.02974751611505598 0.02974751611505598 0.0292888628980333 0.0292888628980333 0.0292888628980333 0.0292888628980333 0.02880271483094776 
0.02880271483094776 0.02880271483094776 0.02880271483094776 0.02828872945052256 0.02828872945052256 0.02828872945052256 0.02828872945052256 0.02774654859544862 0.02774654859544862 
0.02774654859544862 0.02774654859544862 0.02717579849530347 0.02717579849530347 0.02717579849530347 0.02717579849530347 0.02657608989751446 0.02657608989751446 0.02657608989751446 
0.02657608989751446 0.02594701823839046 0.02594701823839046 0.02594701823839046 0.02594701823839046 0.02528816386507763 0.02528816386507763 0.02528816386507763 0.02528816386507763 
0.02459909231619932 0.02459909231619932 0.02459909231619932 0.02459909231619932 0.02387935466999361 0.02387935466999361 0.02387935466999361 0.02387935466999361 0.02312848796991966 
0.02312848796991966 0.02312848796991966 0.02312848796991966 0.02234601573902679 0.02234601573902679 0.02234601573902679 0.02234601573902679 0.02153144859585056 0.02153144859585056 
0.02153144859585056 0.02153144859585056 0.02068428498625636 0.02068428498625636 0.02068428498625636 0.02068428498625636 0.01980401204749024 0.01980401204749024 0.01980401204749024 
0.01980401204749024 0.01889010662274689 0.01889010662274689 0.01889010662274689 0.01889010662274689 0.01794203644683466 0.01794203644683466 0.01794203644683466 0.01794203644683466 
0.01695926152602004 0.01695926152602004 0.01695926152602004 0.01695926152602004 0.01594123573787668 0.01594123573787668 0.01594123573787668 0.01594123573787668 0.01488740867995723 
0.01488740867995723 0.01488740867995723 0.01488740867995723 0.01379722779934012 0.01379722779934012 0.01379722779934012 0.01379722779934012 0.01267014083857773 0.01267014083857773 
0.01267014083857773 0.01267014083857773 0.0115055986372564 0.0115055986372564 0.0115055986372564 0.0115055986372564 0.01030305833225189 0.01030305833225189 0.01030305833225189 
0.01030305833225189 0.009061987003753 0.009061987003753 0.009061987003753 0.009061987003753 0.007781865818182973 0.007781865818182973 0.007781865818182973 0.007781865818182973 
0.006462194723146299 0.006462194723146299 0.006462194723146299 0.006462194723146299 0.005102497753326734 0.005102497753326734 0.005102497753326734 0.005102497753326734 0.003702329000898113 
0.003702329000898113 0.003702329000898113 0.003702329000898113 0.002261276857536143 0.002261276857536143 0.002261276857536143 0.002261276857536143 0.0007784502077136159 0.0007784502077136159 
0.0007784502077136159 0.0007784502077136159 -0.0007991489955248328 -0.0007991489955248328 -0.0007991489955248328 -0.0007991489955248328 -0.002418089156971952 -0.002418089156971952 -0.002418089156971952 
-0.002418089156971952 -0.004131762568680844 -0.004131762568680844 -0.004131762568680844 -0.004131762568680844 -0.005946118363977811 -0.005946118363977811 -0.005946118363977811 -0.005946118363977811 
-0.00786701286005986 -0.00786701286005986 -0.00786701286005986 -0.00786701286005986 -0.009900579884996888 -0.009900579884996888 -0.009900579884996888 -0.009900579884996888 -0.01205322583608583 
-0.01205322583608583 -0.01205322583608583 -0.01205322583608583 -0.01433161535637871 -0.01433161535637871 -0.01433161535637871 -0.01433161535637871 -0.01674264759157505 -0.01674264759157505 
-0.01674264759157505 -0.01674264759157505 -0.01929342026663405 -0.01929342026663405 -0.01929342026663405 -0.01929342026663405 -0.02199117815066742 -0.02199117815066742 -0.02199117815066742 
-0.02199117815066742 -0.02484324171411993 -0.02484324171411993 -0.02484324171411993 -0.02484324171411993 -0.02785691092868795 -0.02785691092868795 -0.02785691092868795 -0.02785691092868795 
-0.03103933826258873 -0.03103933826258873 -0.03103933826258873 -0.03103933826258873 -0.03439736407223826 -0.03439736407223826 -0.03439736407223826 -0.03439736407223826 -0.03793730694524391 
-0.03793730694524391 -0.03793730694524391 -0.03793730694524391 -0.04166470136116709 -0.04166470136116709 -0.04166470136116709 -0.04166470136116709 -0.04558397567143542 -0.04558397567143542 
-0.04558397567143542 -0.04558397567143542 -0.04969806533606029 -0.04969806533606029 -0.04969806533606029 -0.04969806533606029 -0.05400796013994849 -0.05400796013994849 -0.05400796013994849 
-0.05400796013994849 -0.05851219024965015 -0.05851219024965015 -0.05851219024965015 -0.05851219024965015 -0.06320626472752931 -0.06320626472752931 -0.06320626472752931 -0.06320626472752931 
-0.06808208725531872 -0.06808208725531872 -0.06808208725531872 -0.06808208725531872 -0.07312738632613784 -0.07312738632613784 -0.07312738632613784 -0.07312738632613784 -0.07832520913010371 
-0.07832520913010371 -0.07832520913010371 -0.07832520913010371 -0.08365353709727737 -0.08365353709727737 -0.08365353709727737 -0.08365353709727737 -0.08908508361131952 -0.08908508361131952 
-0.08908508361131952 -0.08908508361131952 -0.09458732834755008 -0.09458732834755008 -0.09458732834755008 -0.09458732834755008 -0.100122827049183 -0.100122827049183 -0.100122827049183 
-0.100122827049183 -0.1056498114610867 -0.1056498114610867 -0.1056498114610867 -0.1056498114610867 -0.1111230648770085 -0.1111230648770085 -0.1111230648770085 -0.1111230648770085 
-0.1164950291234994 -0.1164950291234994 -0.1164950291234994 -0.1164950291234994 -0.121717073937307 -0.121717073937307 -0.121717073937307 -0.121717073937307 -0.1267408437522445 
-0.1267408437522445 -0.1267408437522445 -0.1267408437522445 -0.1315195920970764 -0.1315195920970764 -0.1315195920970764 -0.1315195920970764 -0.1360094200002928 -0.1360094200002928 
-0.1360094200002928 -0.1360094200002928 -0.1401703498735458 -0.1401703498735458 -0.1401703498735458 -0.1401703498735458 -0.143967186937088 -0.143967186937088 -0.143967186937088 
-0.143967186937088 -0.1473701426772541 -0.1473701426772541 -0.1473701426772541 -0.1473701426772541 -0.1503552158797822 -0.1503552158797822 -0.1503552158797822 -0.1503552158797822 
-0.1529043442213253 -0.1529043442213253 -0.1529043442213253 -0.1529043442213253 -0.1550053521128532 -0.1550053521128532 -0.1550053521128532 -0.1550053521128532 -0.1566517284293241 
-0.1566517284293241 -0.1566517284293241 -0.1566517284293241 -0.1578422716733307 -0.1578422716733307 -0.1578422716733307 -0.1578422716733307 -0.1585806412485168 -0.1585806412485168 
-0.1585806412485168 -0.1585806412485168 -0.1588748535101523 -0.1588748535101523 -0.1588748535101523 -0.1588748535101523 -0.1587367550350503 -0.1587367550350503 -0.1587367550350503 
-0.1587367550350503 -0.1581816655316028 -0.1581816655316028 -0.1581816655316028 -0.1581816655316028 -0.1572276219333557 -0.1572276219333557 -0.1572276219333557 -0.1572276219333557 
-0.1558937385620371 -0.1558937385620371 -0.1558937385620371 -0.1558937385620371 -0.154197449477226 -0.154197449477226 -0.154197449477226 -0.154197449477226 -0.1521638811950851 
-0.1521638811950851 -0.1521638811950851 -0.1521638811950851 -0.1498226571009265 -0.1498226571009265 -0.1498226571009265 -0.1498226571009265 -0.1471987313461838 -0.1471987313461838 
-0.1471987313461838 -0.1471987313461838 -0.1443173205512516 -0.1443173205512516 -0.1443173205512516 -0.1443173205512516 -0.1412035552980207 -0.1412035552980207 -0.1412035552980207 
-0.1412035552980207 -0.1378822343611062 -0.1378822343611062 -0.1378822343611062 -0.1378822343611062 -0.1343776229015813 -0.1343776229015813 -0.1343776229015813 -0.1343776229015813 
-0.1307132870661145 -0.1307132870661145 -0.1307132870661145 -0.1307132870661145 -0.1269119613042265 -0.1269119613042265 -0.1269119613042265 -0.1269119613042265 -0.1229954449491883 