Title = Quad200
FileType = Solution
Variables = q
Zone T = Quad200
ZoneType = FETriangle
Nodes = 160000
Elements = 80000
DataPacking = Block
StrandID = 15
SolutionTime = 1.4
0.3117585480334206 0.3117585480334206 0.3117585480334206 0.3117585480334206 0.3032984212736459 0.3032984212736459 0.3032984212736459 0.3032984212736459 0.2995351560816748 0.2995351560816748 
0.2995351560816748 0.2995351560816748 0.2984159714175744 0.2984159714175744 0.2984159714175744 0.2984159714175744 0.2986209144874957 0.2986209144874957 0.2986209144874957 
0.2986209144874957 0.2994377424213604 0.2994377424213604 0.2994377424213604 0.2994377424213604 0.3005153464486782 0.3005153464486782 0.3005153464486782 0.3005153464486782 
0.3016882291283433 0.3016882291283433 0.3016882291283433 0.3016882291283433 0.3028804381894769 0.3028804381894769 0.3028804381894769 0.3028804381894769 0.3040578156465017 
0.3040578156465017 0.3040578156465017 0.3040578156465017 0.3052053171467819 0.3052053171467819 0.3052053171467819 0.3052053171467819 0.306316509269974 0.306316509269974 
0.306316509269974 0.306316509269974 0.3073887768066567 0.3073887768066567 0.3073887768066567 0.3073887768066567 0.3084211441754 0.3084211441754 0.3084211441754 
0.3084211441754 0.3094132650746303 0.3094132650746303 0.3094132650746303 0.3094132650746303 0.3103649107284734 0.3103649107284734 0.3103649107284734 0.3103649107284734 
0.3112756418283101 0.3112756418283101 0.3112756418283101 0.3112756418283101 0.3121445058090392 0.3121445058090392 0.3121445058090392 0.3121445058090392 0.3129696656630798 
0.3129696656630798 0.3129696656630798 0.3129696656630798 0.3137478886921855 0.3137478886921855 0.3137478886921855 0.3137478886921855 0.3144738266461035 0.3144738266461035 
0.3144738266461035 0.3144738266461035 0.3151390141599191 0.3151390141599191 0.3151390141599191 0.3151390141599191 0.3157305069965484 0.3157305069965484 0.3157305069965484 
0.3157305069965484 0.3162290791858495 0.3162290791858495 0.3162290791858495 0.3162290791858495 0.3166069019738206 0.3166069019738206 0.3166069019738206 0.3166069019738206 
0.3168246388646234 0.3168246388646234 0.3168246388646234 0.3168246388646234 0.3168279096700742 0.3168279096700742 0.3168279096700742 0.3168279096700742 0.3165433257425913 
0.3165433257425913 0.3165433257425913 0.3165433257425913 0.3158740154302934 0.3158740154302934 0.3158740154302934 0.3158740154302934 0.3146946625727802 0.3146946625727802 
0.3146946625727802 0.3146946625727802 0.3128465219678908 0.3128465219678908 0.3128465219678908 0.3128465219678908 0.3101326211579452 0.3101326211579452 0.3101326211579452 
0.3101326211579452 0.3063134681557719 0.3063134681557719 0.3063134681557719 0.3063134681557719 0.3011036853732562 0.3011036853732562 0.3011036853732562 0.3011036853732562 
0.2941702314956872 0.2941702314956872 0.2941702314956872 0.2941702314956872 0.2851332504411495 0.2851332504411495 0.2851332504411495 0.2851332504411495 0.2735710354152869 
0.2735710354152869 0.2735710354152869 0.2735710354152869 0.2590311902492567 0.2590311902492567 0.2590311902492567 0.2590311902492567 0.2410512654861209 0.2410512654861209 
0.2410512654861209 0.2410512654861209 0.2191949101265505 0.2191949101265505 0.2191949101265505 0.2191949101265505 0.1931157436428546 0.1931157436428546 0.1931157436428546 
0.1931157436428546 0.1626749068197421 0.1626749068197421 0.1626749068197421 0.1626749068197421 0.1281683347446352 0.1281683347446352 0.1281683347446352 0.1281683347446352 
0.09077366719834301 0.09077366719834301 0.09077366719834301 0.09077366719834301 0.05338224252858313 0.05338224252858313 0.05338224252858313 0.05338224252858313 0.02197142983131061 
0.02197142983131061 0.02197142983131061 0.02197142983131061 0.006199530585425682 0.006199530585425682 0.006199530585425682 0.006199530585425682 0.003917082606139259 0.003917082606139259 
0.003917082606139259 0.003917082606139259 0.003831539156237337 0.003831539156237337 0.003831539156237337 0.003831539156237337 0.003838215107915403 0.003838215107915403 0.003838215107915403 
0.003838215107915403 0.003845497610104032 0.003845497610104032 0.003845497610104032 0.003845497610104032 0.003848975486811581 0.003848975486811581 0.003848975486811581 0.003848975486811581 
0.003850016984235704 0.003850016984235704 0.003850016984235704 0.003850016984235704 0.003793408978208436 0.003793408978208436 0.003793408978208436 0.003793408978208436 0.001437110475232444 
0.001437110475232444 0.001437110475232444 0.001437110475232444 -0.0193986158174606 -0.0193986158174606 -0.0193986158174606 -0.0193986158174606 -0.0553365486429352 -0.0553365486429352 
-0.0553365486429352 -0.0553365486429352 -0.09459154680684237 -0.09459154680684237 -0.09459154680684237 -0.09459154680684237 -0.1323376610635111 -0.1323376610635111 -0.1323376610635111 
-0.1323376610635111 -0.1664663254205329 -0.1664663254205329 -0.1664663254205329 -0.1664663254205329 -0.196215976732757 -0.196215976732757 -0.196215976732757 -0.196215976732757 
-0.221494881900415 -0.221494881900415 -0.221494881900415 -0.221494881900415 -0.2425430575623044 -0.2425430575623044 -0.2425430575623044 -0.2425430575623044 -0.2597587399885229 
-0.2597587399885229 -0.2597587399885229 -0.2597587399885229 -0.2736047249672758 -0.2736047249672758 -0.2736047249672758 -0.2736047249672758 -0.2845554108677292 -0.2845554108677292 
-0.2845554108677292 -0.2845554108677292 -0.2930661418845145 -0.2930661418845145 -0.2930661418845145 -0.2930661418845145 -0.2995558478391105 -0.2995558478391105 -0.2995558478391105 
-0.2995558478391105 -0.3043982027329942 -0.3043982027329942 -0.3043982027329942 -0.3043982027329942 -0.3079183485079822 -0.3079183485079822 -0.3079183485079822 -0.3079183485079822 
-0.3103931318386782 -0.3103931318386782 -0.3103931318386782 -0.3103931318386782 -0.3120534772817516 -0.3120534772817516 -0.3120534772817516 -0.3120534772817516 -0.3130880790520397 
-0.3130880790520397 -0.3130880790520397 -0.3130880790520397 -0.3136479333385335 -0.3136479333385335 -0.3136479333385335 -0.3136479333385335 -0.3138513480789883 -0.3138513480789883 
-0.3138513480789883 -0.3138513480789883 -0.3137890866734496 -0.3137890866734496 -0.3137890866734496 -0.3137890866734496 -0.313529400551437 -0.313529400551437 -0.313529400551437 
-0.313529400551437 -0.3131224121350651 -0.3131224121350651 -0.3131224121350651 -0.3131224121350651 -0.3126040709980047 -0.3126040709980047 -0.3126040709980047 -0.3126040709980047 
-0.311999574223468 -0.311999574223468 -0.311999574223468 -0.311999574223468 -0.3113261526562411 -0.3113261526562411 -0.3113261526562411 -0.3113261526562411 -0.3105952757827378 
-0.3105952757827378 -0.3105952757827378 -0.3105952757827378 -0.3098143470349647 -0.3098143470349647 -0.3098143470349647 -0.3098143470349647 -0.3089879723552348 -0.3089879723552348 
-0.3089879723552348 -0.3089879723552348 -0.3081188878867325 -0.3081188878867325 -0.3081188878867325 -0.3081188878867325 -0.3072086318529508 -0.3072086318529508 -0.3072086318529508 
-0.3072086318529508 -0.3062580462337463 -0.3062580462337463 -0.3062580462337463 -0.3062580462337463 -0.3052677066064249 -0.3052677066064249 -0.3052677066064249 -0.3052677066064249 
-0.3042384236567484 -0.3042384236567484 -0.3042384236567484 -0.3042384236567484 -0.3031720797855604 -0.3031720797855604 -0.3031720797855604 -0.3031720797855604 -0.3020733528319269 
-0.3020733528319269 -0.3020733528319269 -0.3020733528319269 -0.3009535444444055 -0.3009535444444055 -0.3009535444444055 -0.3009535444444055 -0.2998392283322991 -0.2998392283322991 
-0.2998392283322991 -0.2998392283322991 -0.2987917259829272 -0.2987917259829272 -0.2987917259829272 -0.2987917259829272 -0.2979503939691579 -0.2979503939691579 -0.2979503939691579 
-0.2979503939691579 -0.297626351631726 -0.297626351631726 -0.297626351631726 -0.297626351631726 -0.2984939071908369 -0.2984939071908369 -0.2984939071908369 -0.2984939071908369 
-0.3019250183771891 -0.3019250183771891 -0.3019250183771891 -0.3019250183771891 -0.3103658935953727 -0.3103658935953727 -0.3103658935953727 -0.3103658935953727 -0.327120188824909 
-0.327120188824909 -0.327120188824909 -0.327120188824909 -0.3542910821048751 -0.3542910821048751 -0.3542910821048751 -0.3542910821048751 -0.389416508723559 -0.389416508723559 
-0.389416508723559 -0.389416508723559 -0.4253280478918892 -0.4253280478918892 -0.4253280478918892 -0.4253280478918892 -0.4548763022882577 -0.4548763022882577 -0.4548763022882577 
-0.4548763022882577 -0.4748511542004055 -0.4748511542004055 -0.4748511542004055 -0.4748511542004055 -0.4857078225113703 -0.4857078225113703 -0.4857078225113703 -0.4857078225113703 
-0.4894293117161659 -0.4894293117161659 -0.4894293117161659 -0.4894293117161659 -0.4880025547008973 -0.4880025547008973 -0.4880025547008973 -0.4880025547008973 -0.4829207754159167 
-0.4829207754159167 -0.4829207754159167 -0.4829207754159167 -0.4751702231235826 -0.4751702231235826 -0.4751702231235826 -0.4751702231235826 -0.4653663105280983 -0.4653663105280983 
-0.4653663105280983 -0.4653663105280983 -0.4539094235856881 -0.4539094235856881 -0.4539094235856881 -0.4539094235856881 -0.4410862685118862 -0.4410862685118862 -0.4410862685118862 
-0.4410862685118862 -0.4271313088367724 -0.4271313088367724 -0.4271313088367724 -0.4271313088367724 -0.4122634893153779 -0.4122634893153779 -0.4122634893153779 -0.4122634893153779 
-0.396707559599911 -0.396707559599911 -0.396707559599911 -0.396707559599911 -0.3807049631617821 -0.3807049631617821 -0.3807049631617821 -0.3807049631617821 -0.3645166725005077 
-0.3645166725005077 -0.3645166725005077 -0.3645166725005077 -0.3484190712892426 -0.3484190712892426 -0.3484190712892426 -0.3484190712892426 -0.3326936402526467 -0.3326936402526467 
-0.3326936402526467 -0.3326936402526467 -0.317611564984192 -0.317611564984192 -0.317611564984192 -0.317611564984192 -0.303415230337942 -0.303415230337942 -0.303415230337942 
-0.303415230337942 -0.2902995585665423 -0.2902995585665423 -0.2902995585665423 -0.2902995585665423 -0.2783967895331514 -0.2783967895331514 -0.2783967895331514 -0.2783967895331514 
-0.2677680691497689 -0.2677680691497689 -0.2677680691497689 -0.2677680691497689 -0.2584038603298924 -0.2584038603298924 -0.2584038603298924 -0.2584038603298924 -0.2502330221144892 
-0.2502330221144892 -0.2502330221144892 -0.2502330221144892 -0.2431382292457419 -0.2431382292457419 -0.2431382292457419 -0.2431382292457419 -0.2369741082700604 -0.2369741082700604 
-0.2369741082700604 -0.2369741082700604 -0.231584462433571 -0.231584462433571 -0.231584462433571 -0.231584462433571 -0.2268159974015262 -0.2268159974015262 -0.2268159974015262 
-0.2268159974015262 -0.2225273947651132 -0.2225273947651132 -0.2225273947651132 -0.2225273947651132 -0.218593802965128 -0.218593802965128 -0.218593802965128 -0.218593802965128 
-0.2149075278528984 -0.2149075278528984 -0.2149075278528984 -0.2149075278528984 -0.2113759164635169 -0.2113759164635169 -0.2113759164635169 -0.2113759164635169 -0.2079173039400523 
-0.2079173039400523 -0.2079173039400523 -0.2079173039400523 -0.2044556162571438 -0.2044556162571438 -0.2044556162571438 -0.2044556162571438 -0.2009139162770629 -0.2009139162770629 
-0.2009139162770629 -0.2009139162770629 -0.1972069073828313 -0.1972069073828313 -0.1972069073828313 -0.1972069073828313 -0.1932321758385019 -0.1932321758385019 -0.1932321758385019 
-0.1932321758385019 -0.1888597312193683 -0.1888597312193683 -0.1888597312193683 -0.1888597312193683 -0.1839191262701962 -0.1839191262701962 -0.1839191262701962 -0.1839191262701962 
-0.1781829708247398 -0.1781829708247398 -0.1781829708247398 -0.1781829708247398 -0.1713447253058974 -0.1713447253058974 -0.1713447253058974 -0.1713447253058974 -0.1629866532708377 
-0.1629866532708377 -0.1629866532708377 -0.1629866532708377 -0.1525292032326462 -0.1525292032326462 -0.1525292032326462 -0.1525292032326462 -0.1391416019009633 -0.1391416019009633 
-0.1391416019009633 -0.1391416019009633 -0.121561228106191 -0.121561228106191 -0.121561228106191 -0.121561228106191 -0.09766278207349696 -0.09766278207349696 -0.09766278207349696 
-0.09766278207349696 -0.06317913456607273 -0.06317913456607273 -0.06317913456607273 -0.06317913456607273 -0.006641726614402742 -0.006641726614402742 -0.006641726614402742 -0.006641726614402742 
0.05725926642549059 0.05725926642549059 0.05725926642549059 0.05725926642549059 0.09450030981781161 0.09450030981781161 0.09450030981781161 0.09450030981781161 0.120014443882812 
0.120014443882812 0.120014443882812 0.120014443882812 0.1387316064114177 0.1387316064114177 0.1387316064114177 0.1387316064114177 0.1529739011869814 0.1529739011869814 
0.1529739011869814 0.1529739011869814 0.1640891810886375 0.1640891810886375 0.1640891810886375 0.1640891810886375 0.1729562382843649 0.1729562382843649 0.1729562382843649 
0.1729562382843649 0.1801866877461553 0.1801866877461553 0.1801866877461553 0.1801866877461553 0.1862218274535443 0.1862218274535443 0.1862218274535443 0.1862218274535443 
0.191386259860582 0.191386259860582 0.191386259860582 0.191386259860582 0.195921244660955 0.195921244660955 0.195921244660955 0.195921244660955 0.2000074637507048 
0.2000074637507048 0.2000074637507048 0.2000074637507048 0.2037816890581515 0.2037816890581515 0.2037816890581515 0.2037816890581515 0.2073496203758716 0.2073496203758716 
0.2073496203758716 0.2073496203758716 0.2107961421751615 0.2107961421751615 0.2107961421751615 0.2107961421751615 0.2141937507109613 0.2141937507109613 0.2141937507109613 
0.2141937507109613 0.2176096302467844 0.2176096302467844 0.2176096302467844 0.2176096302467844 0.2211116714158737 0.2211116714158737 0.2211116714158737 0.2211116714158737 
0.2247735565693443 0.2247735565693443 0.2247735565693443 0.2247735565693443 0.2286788525474638 0.2286788525474638 0.2286788525474638 0.2286788525474638 0.2329238410128089 
0.2329238410128089 0.2329238410128089 0.2329238410128089 0.2376185972711633 0.2376185972711633 0.2376185972711633 0.2376185972711633 0.2428856531914148 0.2428856531914148 
0.2428856531914148 0.2428856531914148 0.248855541906607 0.248855541906607 0.248855541906607 0.248855541906607 0.255658740609837 0.255658740609837 0.255658740609837 
0.255658740609837 0.263414095108752 0.263414095108752 0.263414095108752 0.263414095108752 0.2722147010031216 0.2722147010031216 0.2722147010031216 0.2722147010031216 
0.2821132084702367 0.2821132084702367 0.2821132084702367 0.2821132084702367 0.293109205515023 0.293109205515023 0.293109205515023 0.293109205515023 0.3051413032095366 
0.3051413032095366 0.3051413032095366 0.3051413032095366 0.3180856333915141 0.3180856333915141 0.3180856333915141 0.3180856333915141 0.3317609218229641 0.3317609218229641 
0.3317609218229641 0.3317609218229641 0.3459386688780893 0.3459386688780893 0.3459386688780893 0.3459386688780893 0.360355795242707 0.360355795242707 0.360355795242707 
0.360355795242707 0.3747266315091426 0.3747266315091426 0.3747266315091426 0.3747266315091426 0.3887512126512641 0.3887512126512641 0.3887512126512641 0.3887512126512641 
0.4021170991244821 0.4021170991244821 0.4021170991244821 0.4021170991244821 0.4144919445045852 0.4144919445045852 0.4144919445045852 0.4144919445045852 0.4255034085721683 
0.4255034085721683 0.4255034085721683 0.4255034085721683 0.4347016702744492 0.4347016702744492 0.4347016702744492 0.4347016702744492 0.4414984459493577 0.4414984459493577 
0.4414984459493577 0.4414984459493577 0.4450784437373306 0.4450784437373306 0.4450784437373306 0.4450784437373306 0.4443172867795265 0.4443172867795265 0.4443172867795265 
0.4443172867795265 0.4378469692234579 0.4378469692234579 0.4378469692234579 0.4378469692234579 0.4243694955298443 0.4243694955298443 0.4243694955298443 0.4243694955298443 
0.4035226819523859 0.4035226819523859 0.4035226819523859 0.4035226819523859 0.3771731988641027 0.3771731988641027 0.3771731988641027 0.3771731988641027 0.3499068790838756 
0.3499068790838756 0.3499068790838756 0.3499068790838756 0.3271201888249095 0.3271201888249095 0.3271201888249095 0.3271201888249095 0.3032984212736456 0.3032984212736456 
0.3032984212736456 0.3032984212736456 0.2999178746101472 0.2999178746101472 0.2999178746101472 0.2999178746101472 0.2988529804819296 0.2988529804819296 0.2988529804819296 
0.2988529804819296 0.2990564257455089 0.2990564257455089 0.2990564257455089 0.2990564257455089 0.2998906050899964 0.2998906050899964 0.2998906050899964 0.2998906050899964 
0.3010123279871855 0.3010123279871855 0.3010123279871855 0.3010123279871855 0.3022484349155793 0.3022484349155793 0.3022484349155793 0.3022484349155793 0.3035149511987749 
0.3035149511987749 0.3035149511987749 0.3035149511987749 0.304772293874004 0.304772293874004 0.304772293874004 0.304772293874004 0.3060022683470369 0.3060022683470369 
0.3060022683470369 0.3060022683470369 0.3071967572744892 0.3071967572744892 0.3071967572744892 0.3071967572744892 0.3083523091229974 0.3083523091229974 0.3083523091229974 
0.3083523091229974 0.3094675926388327 0.3094675926388327 0.3094675926388327 0.3094675926388327 0.3105422046789054 0.3105422046789054 0.3105422046789054 0.3105422046789054 
0.3115760976547983 0.3115760976547983 0.3115760976547983 0.3115760976547983 0.3125692738010331 0.3125692738010331 0.3125692738010331 0.3125692738010331 0.3135215728336834 
0.3135215728336834 0.3135215728336834 0.3135215728336834 0.3144324597878577 0.3144324597878577 0.3144324597878577 0.3144324597878577 0.3153007519552916 0.3153007519552916 
0.3153007519552916 0.3153007519552916 0.3161242326808963 0.3161242326808963 0.3161242326808963 0.3161242326808963 0.3168990973953072 0.3168990973953072 0.3168990973953072 
0.3168990973953072 0.3176191700157934 0.3176191700157934 0.3176191700157934 0.3176191700157934 0.3182748197922105 0.3182748197922105 0.3182748197922105 0.3182748197922105 
0.3188515025996226 0.3188515025996226 0.3188515025996226 0.3188515025996226 0.319327849170549 0.319327849170549 0.319327849170549 0.319327849170549 0.3196732276812699 
0.3196732276812699 0.3196732276812699 0.3196732276812699 0.3198447175929292 0.3198447175929292 0.3198447175929292 0.3198447175929292 0.3197834850398183 0.3197834850398183 
0.3197834850398183 0.3197834850398183 0.3194108218831281 0.3194108218831281 0.3194108218831281 0.3194108218831281 0.3186235940115594 0.3186235940115594 0.3186235940115594 
0.3186235940115594 0.3172893833137789 0.3172893833137789 0.3172893833137789 0.3172893833137789 0.3152416326871492 0.3152416326871492 0.3152416326871492 0.3152416326871492 
0.3122750212898567 0.3122750212898567 0.3122750212898567 0.3122750212898567 0.3081414345568469 0.3081414345568469 0.3081414345568469 0.3081414345568469 0.3025470716149243 
0.3025470716149243 0.3025470716149243 0.3025470716149243 0.295151492396633 0.295151492396633 0.295151492396633 0.295151492396633 0.2855697087059891 0.2855697087059891 
0.2855697087059891 0.2855697087059891 0.2733788214159278 0.2733788214159278 0.2733788214159278 0.2733788214159278 0.2581315042636654 0.2581315042636654 0.2581315042636654 
0.2581315042636654 0.2393804802114691 0.2393804802114691 0.2393804802114691 0.2393804802114691 0.2167222866271112 0.2167222866271112 0.2167222866271112 0.2167222866271112 
0.1898780365467632 0.1898780365467632 0.1898780365467632 0.1898780365467632 0.158849175522219 0.158849175522219 0.158849175522219 0.158849175522219 0.1242149676364838 
0.1242149676364838 0.1242149676364838 0.1242149676364838 0.08761552723533966 0.08761552723533966 0.08761552723533966 0.08761552723533966 0.05227826119528579 0.05227826119528579 
0.05227826119528579 0.05227826119528579 0.02364469469452714 0.02364469469452714 0.02364469469452714 0.02364469469452714 0.009969277764381982 0.009969277764381982 0.009969277764381982 
0.009969277764381982 0.007778073178991459 0.007778073178991459 0.007778073178991459 0.007778073178991459 0.007645967102449067 0.007645967102449067 0.007645967102449067 0.007645967102449067 
0.007647251736097602 0.007647251736097602 0.007647251736097602 0.007647251736097602 0.007653276363940559 0.007653276363940559 0.007653276363940559 0.007653276363940559 0.007657428874061703 
0.007657428874061703 0.007657428874061703 0.007657428874061703 0.007658321767200268 0.007658321767200268 0.007658321767200268 0.007658321767200268 0.007595507276740267 0.007595507276740267 
0.007595507276740267 0.007595507276740267 0.005383437199335717 0.005383437199335717 0.005383437199335717 0.005383437199335717 -0.01943427436489319 -0.01943427436489319 -0.01943427436489319 
-0.01943427436489319 -0.05850274335113368 -0.05850274335113368 -0.05850274335113368 -0.05850274335113368 -0.09883445338352494 -0.09883445338352494 -0.09883445338352494 -0.09883445338352494 
-0.1365636512200394 -0.1365636512200394 -0.1365636512200394 -0.1365636512200394 -0.1701596439856492 -0.1701596439856492 -0.1701596439856492 -0.1701596439856492 -0.1991570824071282 
-0.1991570824071282 -0.1991570824071282 -0.1991570824071282 -0.2236154507657451 -0.2236154507657451 -0.2236154507657451 -0.2236154507657451 -0.243854646742005 -0.243854646742005 
-0.243854646742005 -0.243854646742005 -0.2603157520423363 -0.2603157520423363 -0.2603157520423363 -0.2603157520423363 -0.2734834066164688 -0.2734834066164688 -0.2734834066164688 
-0.2734834066164688 -0.2838409202405786 -0.2838409202405786 -0.2838409202405786 -0.2838409202405786 -0.2918443408441347 -0.2918443408441347 -0.2918443408441347 -0.2918443408441347 
-0.29790836156614 -0.29790836156614 -0.29790836156614 -0.29790836156614 -0.3023997957816768 -0.3023997957816768 -0.3023997957816768 -0.3023997957816768 -0.3056357352923346 
-0.3056357352923346 -0.3056357352923346 -0.3056357352923346 -0.3078845270192682 -0.3078845270192682 -0.3078845270192682 -0.3078845270192682 -0.3093685367858268 -0.3093685367858268 
-0.3093685367858268 -0.3093685367858268 -0.3102681577017739 -0.3102681577017739 -0.3102681577017739 -0.3102681577017739 -0.3107266588206239 -0.3107266588206239 -0.3107266588206239 
-0.3107266588206239 -0.3108554506540651 -0.3108554506540651 -0.3108554506540651 -0.3108554506540651 -0.3107393795360511 -0.3107393795360511 -0.3107393795360511 -0.3107393795360511 
-0.3104417515871916 -0.3104417515871916 -0.3104417515871916 -0.3104417515871916 -0.3100086400123012 -0.3100086400123012 -0.3100086400123012 -0.3100086400123012 -0.3094727946488097 
-0.3094727946488097 -0.3094727946488097 -0.3094727946488097 -0.3088569471552974 -0.3088569471552974 -0.3088569471552974 -0.3088569471552974 -0.3081764778804399 -0.3081764778804399 
-0.3081764778804399 -0.3081764778804399 -0.3074415046397638 -0.3074415046397638 -0.3074415046397638 -0.3074415046397638 -0.3066584739930261 -0.3066584739930261 -0.3066584739930261 
-0.3066584739930261 -0.3058313460867314 -0.3058313460867314 -0.3058313460867314 -0.3058313460867314 -0.3049624704397315 -0.3049624704397315 -0.3049624704397315 -0.3049624704397315 
-0.3040532588759706 -0.3040532588759706 -0.3040532588759706 -0.3040532588759706 -0.3031047902493804 -0.3031047902493804 -0.3031047902493804 -0.3031047902493804 -0.3021185632534334 
-0.3021185632534334 -0.3021185632534334 -0.3021185632534334 -0.3010978217608403 -0.3010978217608403 -0.3010978217608403 -0.3010978217608403 -0.3000503789872031 -0.3000503789872031 
-0.3000503789872031 -0.3000503789872031 -0.2989950438821493 -0.2989950438821493 -0.2989950438821493 -0.2989950438821493 -0.2979764648283194 -0.2979764648283194 -0.2979764648283194 
-0.2979764648283194 -0.2970993215451874 -0.2970993215451874 -0.2970993215451874 -0.2970993215451874 -0.2966060236162483 -0.2966060236162483 -0.2966060236162483 -0.2966060236162483 
-0.2970475511763488 -0.2970475511763488 -0.2970475511763488 -0.2970475511763488 -0.2996244317365171 -0.2996244317365171 -0.2996244317365171 -0.2996244317365171 -0.3067195595217913 
-0.3067195595217913 -0.3067195595217913 -0.3067195595217913 -0.3221920294047002 -0.3221920294047002 -0.3221920294047002 -0.3221920294047002 -0.3499068790838747 -0.3499068790838747 
-0.3499068790838747 -0.3499068790838747 -0.3894165087235586 -0.3894165087235586 -0.3894165087235586 -0.3894165087235586 -0.4332455413430223 -0.4332455413430223 -0.4332455413430223 
-0.4332455413430223 -0.4715116597623746 -0.4715116597623746 -0.4715116597623746 -0.4715116597623746 -0.4986258027499855 -0.4986258027499855 -0.4986258027499855 -0.4986258027499855 
-0.5144735745614504 -0.5144735745614504 -0.5144735745614504 -0.5144735745614504 -0.521611279062788 -0.521611279062788 -0.521611279062788 -0.521611279062788 -0.5227705209636118 
-0.5227705209636118 -0.5227705209636118 -0.5227705209636118 -0.5199351423753303 -0.5199351423753303 -0.5199351423753303 -0.5199351423753303 -0.5143440853102779 -0.5143440853102779 
-0.5143440853102779 -0.5143440853102779 -0.5066996705170228 -0.5066996705170228 -0.5066996705170228 -0.5066996705170228 -0.4973910757115883 -0.4973910757115883 -0.4973910757115883 
-0.4973910757115883 -0.4866427145497468 -0.4866427145497468 -0.4866427145497468 -0.4866427145497468 -0.4745979011125781 -0.4745979011125781 -0.4745979011125781 -0.4745979011125781 
-0.4613668746150055 -0.4613668746150055 -0.4613668746150055 -0.4613668746150055 -0.447055827109488 -0.447055827109488 -0.447055827109488 -0.447055827109488 -0.4317855216149014 
-0.4317855216149014 -0.4317855216149014 -0.4317855216149014 -0.4157035631319033 -0.4157035631319033 -0.4157035631319033 -0.4157035631319033 -0.3989919166007044 -0.3989919166007044 
-0.3989919166007044 -0.3989919166007044 -0.3818699172501289 -0.3818699172501289 -0.3818699172501289 -0.3818699172501289 -0.3645923270350534 -0.3645923270350534 -0.3645923270350534 
-0.3645923270350534 -0.3474417919684311 -0.3474417919684311 -0.3474417919684311 -0.3474417919684311 -0.3307153462345239 -0.3307153462345239 -0.3307153462345239 -0.3307153462345239 
-0.3147054303522597 -0.3147054303522597 -0.3147054303522597 -0.3147054303522597 -0.299677190919201 -0.299677190919201 -0.299677190919201 -0.299677190919201 -0.2858453207427343 
-0.2858453207427343 -0.2858453207427343 -0.2858453207427343 -0.2733547911824627 -0.2733547911824627 -0.2733547911824627 -0.2733547911824627 -0.2622697946190681 -0.2622697946190681 
-0.2622697946190681 -0.2622697946190681 -0.2525736246067702 -0.2525736246067702 -0.2525736246067702 -0.2525736246067702 -0.2441794108682338 -0.2441794108682338 -0.2441794108682338 
-0.2441794108682338 -0.2369487199758716 -0.2369487199758716 -0.2369487199758716 -0.2369487199758716 -0.2307133119051744 -0.2307133119051744 -0.2307133119051744 -0.2307133119051744 
-0.2252954123032942 -0.2252954123032942 -0.2252954123032942 -0.2252954123032942 -0.2205233367537843 -0.2205233367537843 -0.2205233367537843 -0.2205233367537843 -0.2162412372472089 
-0.2162412372472089 -0.2162412372472089 -0.2162412372472089 -0.2123132941259951 -0.2123132941259951 -0.2123132941259951 -0.2123132941259951 -0.2086234934800433 -0.2086234934800433 
-0.2086234934800433 -0.2086234934800433 -0.2050722856889481 -0.2050722856889481 -0.2050722856889481 -0.2050722856889481 -0.2015711774907304 -0.2015711774907304 -0.2015711774907304 
-0.2015711774907304 -0.1980359154648057 -0.1980359154648057 -0.1980359154648057 -0.1980359154648057 -0.1943785253802439 -0.1943785253802439 -0.1943785253802439 -0.1943785253802439 
-0.1904981374497208 -0.1904981374497208 -0.1904981374497208 -0.1904981374497208 -0.1862702430492893 -0.1862702430492893 -0.1862702430492893 -0.1862702430492893 -0.1815337341742422 
-0.1815337341742422 -0.1815337341742422 -0.1815337341742422 -0.1760746503585483 -0.1760746503585483 -0.1760746503585483 -0.1760746503585483 -0.1696047533540995 -0.1696047533540995 
-0.1696047533540995 -0.1696047533540995 -0.1617313326911106 -0.1617313326911106 -0.1617313326911106 -0.1617313326911106 -0.1519107285940628 -0.1519107285940628 -0.1519107285940628 
-0.1519107285940628 -0.139368466423727 -0.139368466423727 -0.139368466423727 -0.139368466423727 -0.1229428367517642 -0.1229428367517642 -0.1229428367517642 -0.1229428367517642 
-0.1007264778823521 -0.1007264778823521 -0.1007264778823521 -0.1007264778823521 -0.069059278705424 -0.069059278705424 -0.069059278705424 -0.069059278705424 -0.01865793028537752 
-0.01865793028537752 -0.01865793028537752 -0.01865793028537752 0.05234264860046725 0.05234264860046725 0.05234264860046725 0.05234264860046725 0.09173525161452835 0.09173525161452835 
0.09173525161452835 0.09173525161452835 0.1185710713646443 0.1185710713646443 0.1185710713646443 0.1185710713646443 0.138286666437685 0.138286666437685 0.138286666437685 
0.138286666437685 0.1533251335619858 0.1533251335619858 0.1533251335619858 0.1533251335619858 0.1650805862845409 0.1650805862845409 0.1650805862845409 0.1650805862845409 
0.1744592208158861 0.1744592208158861 0.1744592208158861 0.1744592208158861 0.182093770648575 0.182093770648575 0.182093770648575 0.182093770648575 0.1884434058503067 
0.1884434058503067 0.1884434058503067 0.1884434058503067 0.1938480273995038 0.1938480273995038 0.1938480273995038 0.1938480273995038 0.1985616817066422 0.1985616817066422 
0.1985616817066422 0.1985616817066422 0.2027752325484564 0.2027752325484564 0.2027752325484564 0.2027752325484564 0.206632891611368 0.206632891611368 0.206632891611368 
0.206632891611368 0.2102448867475425 0.2102448867475425 0.2102448867475425 0.2102448867475425 0.21369750106867 0.21369750106867 0.21369750106867 0.21369750106867 
0.2170612157395548 0.2170612157395548 0.2170612157395548 0.2170612157395548 0.2203974289830958 0.2203974289830958 0.2203974289830958 0.2203974289830958 0.2237640641255179 
0.2237640641255179 0.2237640641255179 0.2237640641255179 0.2272202533939807 0.2272202533939807 0.2272202533939807 0.2272202533939807 0.2308301584705797 0.2308301584705797 
0.2308301584705797 0.2308301584705797 0.2346658498725142 0.2346658498725142 0.2346658498725142 0.2346658498725142 0.2388090161730363 0.2388090161730363 0.2388090161730363 
0.2388090161730363 0.2433511305849484 0.2433511305849484 0.2433511305849484 0.2433511305849484 0.2483916079344465 0.2483916079344465 0.2483916079344465 0.2483916079344465 
0.2540335013004322 0.2540335013004322 0.2540335013004322 0.2540335013004322 0.2603764829503666 0.2603764829503666 0.2603764829503666 0.2603764829503666 0.2675072687511385 