Title = Quad200
FileType = Solution
Variables = q
Zone T = Quad200
ZoneType = FETriangle
Nodes = 160000
Elements = 80000
DataPacking = Block
StrandID = 20
SolutionTime = 1.9
0.4580474181987076 0.4580474181987076 0.4580474181987076 0.4580474181987076 0.459086033840247 0.459086033840247 0.459086033840247 0.459086033840247 0.4599697796926113 0.4599697796926113 
0.4599697796926113 0.4599697796926113 0.460682940126628 0.460682940126628 0.460682940126628 0.460682940126628 0.4612051935745403 0.4612051935745403 0.4612051935745403 
0.4612051935745403 0.4615111819482833 0.4615111819482833 0.4615111819482833 0.4615111819482833 0.46157005450271 0.46157005450271 0.46157005450271 0.46157005450271 
0.4613450938774932 0.4613450938774932 0.4613450938774932 0.4613450938774932 0.460793394175624 0.460793394175624 0.460793394175624 0.460793394175624 0.4598654163244241 
0.4598654163244241 0.4598654163244241 0.4598654163244241 0.4585047300754085 0.4585047300754085 0.4585047300754085 0.4585047300754085 0.4566479188789843 0.4566479188789843 
0.4566479188789843 0.4566479188789843 0.4542247224977491 0.4542247224977491 0.4542247224977491 0.4542247224977491 0.4511585213534227 0.4511585213534227 0.4511585213534227 
0.4511585213534227 0.4473672993434094 0.4473672993434094 0.4473672993434094 0.4473672993434094 0.4427652627783146 0.4427652627783146 0.4427652627783146 0.4427652627783146 
0.4372653418256014 0.4372653418256014 0.4372653418256014 0.4372653418256014 0.4307828541069477 0.4307828541069477 0.4307828541069477 0.4307828541069477 0.4232406586353209 
0.4232406586353209 0.4232406586353209 0.4232406586353209 0.4145761518987413 0.4145761518987413 0.4145761518987413 0.4145761518987413 0.4047504180581062 0.4047504180581062 
0.4047504180581062 0.4047504180581062 0.3937596757857595 0.3937596757857595 0.3937596757857595 0.3937596757857595 0.3816487641726372 0.3816487641726372 0.3816487641726372 
0.3816487641726372 0.3685256492371978 0.3685256492371978 0.3685256492371978 0.3685256492371978 0.3545746954970166 0.3545746954970166 0.3545746954970166 0.3545746954970166 
0.3400647557167451 0.3400647557167451 0.3400647557167451 0.3400647557167451 0.3253463815866597 0.3253463815866597 0.3253463815866597 0.3253463815866597 0.3108317115935649 
0.3108317115935649 0.3108317115935649 0.3108317115935649 0.2969526228213182 0.2969526228213182 0.2969526228213182 0.2969526228213182 0.2840991723038837 0.2840991723038837 
0.2840991723038837 0.2840991723038837 0.2725505195427076 0.2725505195427076 0.2725505195427076 0.2725505195427076 0.2624192862887636 0.2624192862887636 0.2624192862887636 
0.2624192862887636 0.2536298074652387 0.2536298074652387 0.2536298074652387 0.2536298074652387 0.2459377090358269 0.2459377090358269 0.2459377090358269 0.2459377090358269 
0.2389800796556453 0.2389800796556453 0.2389800796556453 0.2389800796556453 0.2323348636067446 0.2323348636067446 0.2323348636067446 0.2323348636067446 0.2255706309511304 
0.2255706309511304 0.2255706309511304 0.2255706309511304 0.2182782650398749 0.2182782650398749 0.2182782650398749 0.2182782650398749 0.2100857846652825 0.2100857846652825 
0.2100857846652825 0.2100857846652825 0.2006622967445492 0.2006622967445492 0.2006622967445492 0.2006622967445492 0.1897176360376917 0.1897176360376917 0.1897176360376917 
0.1897176360376917 0.1770029596547909 0.1770029596547909 0.1770029596547909 0.1770029596547909 0.162316279711755 0.162316279711755 0.162316279711755 0.162316279711755 
0.1455166611747526 0.1455166611747526 0.1455166611747526 0.1455166611747526 0.1265524333841161 0.1265524333841161 0.1265524333841161 0.1265524333841161 0.1055140271965763 
0.1055140271965763 0.1055140271965763 0.1055140271965763 0.0827348988977141 0.0827348988977141 0.0827348988977141 0.0827348988977141 0.05899018651482053 0.05899018651482053 
0.05899018651482053 0.05899018651482053 0.03587634665564697 0.03587634665564697 0.03587634665564697 0.03587634665564697 0.01635015031638917 0.01635015031638917 0.01635015031638917 
0.01635015031638917 0.003530221624471426 0.003530221624471426 0.003530221624471426 0.003530221624471426 -0.01249037356791679 -0.01249037356791679 -0.01249037356791679 -0.01249037356791679 
-0.03457201036465302 -0.03457201036465302 -0.03457201036465302 -0.03457201036465302 -0.05901841015739815 -0.05901841015739815 -0.05901841015739815 -0.05901841015739815 -0.08331338635658551 
-0.08331338635658551 -0.08331338635658551 -0.08331338635658551 -0.1062378846936076 -0.1062378846936076 -0.1062378846936076 -0.1062378846936076 -0.1272142931054329 -0.1272142931054329 
-0.1272142931054329 -0.1272142931054329 -0.1460087115188048 -0.1460087115188048 -0.1460087115188048 -0.1460087115188048 -0.162585940200681 -0.162585940200681 -0.162585940200681 
-0.162585940200681 -0.177032679260614 -0.177032679260614 -0.177032679260614 -0.177032679260614 -0.1895150207197737 -0.1895150207197737 -0.1895150207197737 -0.1895150207197737 
-0.2002551868311861 -0.2002551868311861 -0.2002551868311861 -0.2002551868311861 -0.2095201438355028 -0.2095201438355028 -0.2095201438355028 -0.2095201438355028 -0.2176176780217757 
-0.2176176780217757 -0.2176176780217757 -0.2176176780217757 -0.2248961978949995 -0.2248961978949995 -0.2248961978949995 -0.2248961978949995 -0.231743865654947 -0.231743865654947 
-0.231743865654947 -0.231743865654947 -0.2385813518172179 -0.2385813518172179 -0.2385813518172179 -0.2385813518172179 -0.2458417436176643 -0.2458417436176643 -0.2458417436176643 
-0.2458417436176643 -0.2539329555398713 -0.2539329555398713 -0.2539329555398713 -0.2539329555398713 -0.2631843864942638 -0.2631843864942638 -0.2631843864942638 -0.2631843864942638 
-0.2737898101314994 -0.2737898101314994 -0.2737898101314994 -0.2737898101314994 -0.2857667235783669 -0.2857667235783669 -0.2857667235783669 -0.2857667235783669 -0.2989505233823547 
-0.2989505233823547 -0.2989505233823547 -0.2989505233823547 -0.3130281016617037 -0.3130281016617037 -0.3130281016617037 -0.3130281016617037 -0.3275984696421073 -0.3275984696421073 
-0.3275984696421073 -0.3275984696421073 -0.3422393334118521 -0.3422393334118521 -0.3422393334118521 -0.3422393334118521 -0.3565616698189369 -0.3565616698189369 -0.3565616698189369 
-0.3565616698189369 -0.3702438718183584 -0.3702438718183584 -0.3702438718183584 -0.3702438718183584 -0.3830458643634399 -0.3830458643634399 -0.3830458643634399 -0.3830458643634399 
-0.3948083344530979 -0.3948083344530979 -0.3948083344530979 -0.3948083344530979 -0.4054431741487733 -0.4054431741487733 -0.4054431741487733 -0.4054431741487733 -0.4149201222103332 
-0.4149201222103332 -0.4149201222103332 -0.4149201222103332 -0.4232528941448358 -0.4232528941448358 -0.4232528941448358 -0.4232528941448358 -0.4304865992162857 -0.4304865992162857 
-0.4304865992162857 -0.4304865992162857 -0.4366872011215328 -0.4366872011215328 -0.4366872011215328 -0.4366872011215328 -0.4419331579636208 -0.4419331579636208 -0.4419331579636208 
-0.4419331579636208 -0.4463090607866129 -0.4463090607866129 -0.4463090607866129 -0.4463090607866129 -0.4499009634044029 -0.4499009634044029 -0.4499009634044029 -0.4499009634044029 
-0.4527930742424275 -0.4527930742424275 -0.4527930742424275 -0.4527930742424275 -0.4550655088241881 -0.4550655088241881 -0.4550655088241881 -0.4550655088241881 -0.4567928480495716 
-0.4567928480495716 -0.4567928480495716 -0.4567928480495716 -0.4580432963605137 -0.4580432963605137 -0.4580432963605137 -0.4580432963605137 -0.4588782780189141 -0.4588782780189141 
-0.4588782780189141 -0.4588782780189141 -0.4593523465866361 -0.4593523465866361 -0.4593523465866361 -0.4593523465866361 -0.4595133121927958 -0.4595133121927958 -0.4595133121927958 
-0.4595133121927958 -0.4594025274418782 -0.4594025274418782 -0.4594025274418782 -0.4594025274418782 -0.4590553348649329 -0.4590553348649329 -0.4590553348649329 -0.4590553348649329 
-0.4585013582523506 -0.4585013582523506 -0.4585013582523506 -0.4585013582523506 -0.4577649093172365 -0.4577649093172365 -0.4577649093172365 -0.4577649093172365 -0.456865436803097 
-0.456865436803097 -0.456865436803097 -0.456865436803097 -0.4558179487600106 -0.4558179487600106 -0.4558179487600106 -0.4558179487600106 -0.454633397567349 -0.454633397567349 
-0.454633397567349 -0.454633397567349 -0.4533190209384992 -0.4533190209384992 -0.4533190209384992 -0.4533190209384992 -0.4518786354798395 -0.4518786354798395 -0.4518786354798395 
-0.4518786354798395 -0.4503128815312505 -0.4503128815312505 -0.4503128815312505 -0.4503128815312505 -0.4486194198173977 -0.4486194198173977 -0.4486194198173977 -0.4486194198173977 
-0.4467930820162439 -0.4467930820162439 -0.4467930820162439 -0.4467930820162439 -0.4448259787176563 -0.4448259787176563 -0.4448259787176563 -0.4448259787176563 -0.4427075701376246 
-0.4427075701376246 -0.4427075701376246 -0.4427075701376246 -0.4404247620123575 -0.4404247620123575 -0.4404247620123575 -0.4404247620123575 -0.4379619321233422 -0.4379619321233422 
-0.4379619321233422 -0.4379619321233422 -0.4353009085345534 -0.4353009085345534 -0.4353009085345534 -0.4353009085345534 -0.4324209739017489 -0.4324209739017489 -0.4324209739017489 
-0.4324209739017489 -0.4292988743217153 -0.4292988743217153 -0.4292988743217153 -0.4292988743217153 -0.4259088447017654 -0.4259088447017654 -0.4259088447017654 -0.4259088447017654 
-0.4222226641060239 -0.4222226641060239 -0.4222226641060239 -0.4222226641060239 -0.4182097563337723 -0.4182097563337723 -0.4182097563337723 -0.4182097563337723 -0.4138373529609228 
-0.4138373529609228 -0.4138373529609228 -0.4138373529609228 -0.4090707381529346 -0.4090707381529346 -0.4090707381529346 -0.4090707381529346 -0.4038735971484454 -0.4038735971484454 
-0.4038735971484454 -0.4038735971484454 -0.3982084931090746 -0.3982084931090746 -0.3982084931090746 -0.3982084931090746 -0.392037499876999 -0.392037499876999 -0.392037499876999 
-0.392037499876999 -0.3853230209175159 -0.3853230209175159 -0.3853230209175159 -0.3853230209175159 -0.3780288269998313 -0.3780288269998313 -0.3780288269998313 -0.3780288269998313 
-0.370121346389909 -0.370121346389909 -0.370121346389909 -0.370121346389909 -0.3615712405293671 -0.3615712405293671 -0.3615712405293671 -0.3615712405293671 -0.3523552938775836 
-0.3523552938775836 -0.3523552938775836 -0.3523552938775836 -0.3424586365846062 -0.3424586365846062 -0.3424586365846062 -0.3424586365846062 -0.3318772996849991 -0.3318772996849991 
-0.3318772996849991 -0.3318772996849991 -0.3206210699296346 -0.3206210699296346 -0.3206210699296346 -0.3206210699296346 -0.3087165589058578 -0.3087165589058578 -0.3087165589058578 
-0.3087165589058578 -0.2962103207106513 -0.2962103207106513 -0.2962103207106513 -0.2962103207106513 -0.2831717350107865 -0.2831717350107865 -0.2831717350107865 -0.2831717350107865 
-0.2696952098096427 -0.2696952098096427 -0.2696952098096427 -0.2696952098096427 -0.2559010489049254 -0.2559010489049254 -0.2559010489049254 -0.2559010489049254 -0.241934087697679 
-0.241934087697679 -0.241934087697679 -0.241934087697679 -0.2279589760489523 -0.2279589760489523 -0.2279589760489523 -0.2279589760489523 -0.2141508817556129 -0.2141508817556129 
-0.2141508817556129 -0.2141508817556129 -0.2006805750450402 -0.2006805750450402 -0.2006805750450402 -0.2006805750450402 -0.1876935460940953 -0.1876935460940953 -0.1876935460940953 
-0.1876935460940953 -0.1752841347538742 -0.1752841347538742 -0.1752841347538742 -0.1752841347538742 -0.1634674151919913 -0.1634674151919913 -0.1634674151919913 -0.1634674151919913 
-0.1521529779725051 -0.1521529779725051 -0.1521529779725051 -0.1521529779725051 -0.141124409244425 -0.141124409244425 -0.141124409244425 -0.141124409244425 -0.1300248163397493 
-0.1300248163397493 -0.1300248163397493 -0.1300248163397493 -0.1183415071912275 -0.1183415071912275 -0.1183415071912275 -0.1183415071912275 -0.1053707559910396 -0.1053707559910396 
-0.1053707559910396 -0.1053707559910396 -0.0901181136051063 -0.0901181136051063 -0.0901181136051063 -0.0901181136051063 -0.07100759926407457 -0.07100759926407457 -0.07100759926407457 
-0.07100759926407457 -0.04488713970081663 -0.04488713970081663 -0.04488713970081663 -0.04488713970081663 -0.001874210155572502 -0.001874210155572502 -0.001874210155572502 -0.001874210155572502 
0.0432777489617988 0.0432777489617988 0.0432777489617988 0.0432777489617988 0.07024733640846011 0.07024733640846011 0.07024733640846011 0.07024733640846011 0.0898872982419648 
0.0898872982419648 0.0898872982419648 0.0898872982419648 0.1055005614255818 0.1055005614255818 0.1055005614255818 0.1055005614255818 0.1187029052207554 0.1187029052207554 
0.1187029052207554 0.1187029052207554 0.1305043495341031 0.1305043495341031 0.1305043495341031 0.1305043495341031 0.1416199704642874 0.1416199704642874 0.1416199704642874 
0.1416199704642874 0.1525765316188844 0.1525765316188844 0.1525765316188844 0.1525765316188844 0.1637500207385017 0.1637500207385017 0.1637500207385017 0.1637500207385017 
0.1753803498788988 0.1753803498788988 0.1753803498788988 0.1753803498788988 0.1875832599200555 0.1875832599200555 0.1875832599200555 0.1875832599200555 0.2003675691064736 
0.2003675691064736 0.2003675691064736 0.2003675691064736 0.2136586341855007 0.2136586341855007 0.2136586341855007 0.2136586341855007 0.2273249333425693 0.2273249333425693 
0.2273249333425693 0.2273249333425693 0.2412036995951745 0.2412036995951745 0.2412036995951745 0.2412036995951745 0.2551225118296568 0.2551225118296568 0.2551225118296568 
0.2551225118296568 0.2689153967042678 0.2689153967042678 0.2689153967042678 0.2689153967042678 0.2824334058910376 0.2824334058910376 0.2824334058910376 0.2824334058910376 
0.2955504752227607 0.2955504752227607 0.2955504752227607 0.2955504752227607 0.3081656918669099 0.3081656918669099 0.3081656918669099 0.3081656918669099 0.3202030773705757 
0.3202030773705757 0.3202030773705757 0.3202030773705757 0.3316098139630059 0.3316098139630059 0.3316098139630059 0.3316098139630059 0.3423536160025916 0.3423536160025916 
0.3423536160025916 0.3423536160025916 0.3524197391370064 0.3524197391370064 0.3524197391370064 0.3524197391370064 0.3618079502881959 0.3618079502881959 0.3618079502881959 
0.3618079502881959 0.370529655291711 0.370529655291711 0.370529655291711 0.370529655291711 0.378605292312066 0.378605292312066 0.378605292312066 0.378605292312066 
0.3860620398177269 0.3860620398177269 0.3860620398177269 0.3860620398177269 0.3929318500566579 0.3929318500566579 0.3929318500566579 0.3929318500566579 0.3992497961498891 
0.3992497961498891 0.3992497961498891 0.3992497961498891 0.4050527082080653 0.4050527082080653 0.4050527082080653 0.4050527082080653 0.4103780677403939 0.4103780677403939 
0.4103780677403939 0.4103780677403939 0.4152631276083486 0.4152631276083486 0.4152631276083486 0.4152631276083486 0.4197442252138247 0.4197442252138247 0.4197442252138247 
0.4197442252138247 0.4238562584125096 0.4238562584125096 0.4238562584125096 0.4238562584125096 0.4276322961186426 0.4276322961186426 0.4276322961186426 0.4276322961186426 
0.4311032983095406 0.4311032983095406 0.4311032983095406 0.4311032983095406 0.434297922848454 0.434297922848454 0.434297922848454 0.434297922848454 0.4372423989924672 
0.4372423989924672 0.4372423989924672 0.4372423989924672 0.439960449715039 0.439960449715039 0.439960449715039 0.439960449715039 0.4424732470187077 0.4424732470187077 
0.4424732470187077 0.4424732470187077 0.4447993864374345 0.4447993864374345 0.4447993864374345 0.4447993864374345 0.4469548693068071 0.4469548693068071 0.4469548693068071 
0.4469548693068071 0.4489530945270448 0.4489530945270448 0.4489530945270448 0.4489530945270448 0.4508048521970972 0.4508048521970972 0.4508048521970972 0.4508048521970972 
0.4525182036631056 0.4525182036631056 0.4525182036631056 0.4525182036631056 0.4540983938420521 0.4540983938420521 0.4540983938420521 0.4540983938420521 0.4555477331382226 
0.4555477331382226 0.4555477331382226 0.4555477331382226 0.4568654368030969 0.4568654368030969 0.4568654368030969 0.4568654368030969 0.4590860338402467 0.4590860338402467 
0.4590860338402467 0.4590860338402467 0.4602652272246207 0.4602652272246207 0.4602652272246207 0.4602652272246207 0.4612944165502642 0.4612944165502642 0.4612944165502642 
0.4612944165502642 0.4621615169388793 0.4621615169388793 0.4621615169388793 0.4621615169388793 0.4628500700190211 0.4628500700190211 0.4628500700190211 0.4628500700190211 
0.4633388395879545 0.4633388395879545 0.4633388395879545 0.4633388395879545 0.4636013716874111 0.4636013716874111 0.4636013716874111 0.4636013716874111 0.4636055314761099 
0.4636055314761099 0.4636055314761099 0.4636055314761099 0.4633131724393234 0.4633131724393234 0.4633131724393234 0.4633131724393234 0.4626797572739283 0.4626797572739283 
0.4626797572739283 0.4626797572739283 0.4616539379464151 0.4616539379464151 0.4616539379464151 0.4616539379464151 0.4601773206917829 0.4601773206917829 0.4601773206917829 
0.4601773206917829 0.4581844054810956 0.4581844054810956 0.4581844054810956 0.4581844054810956 0.4556027853973225 0.4556027853973225 0.4556027853973225 0.4556027853973225 
0.452353719730285 0.452353719730285 0.452353719730285 0.452353719730285 0.4483532311397518 0.4483532311397518 0.4483532311397518 0.4483532311397518 0.4435139228545045 
0.4435139228545045 0.4435139228545045 0.4435139228545045 0.4377477658949281 0.4377477658949281 0.4377477658949281 0.4377477658949281 0.4309701643328825 0.4309701643328825 
0.4309701643328825 0.4309701643328825 0.4231056568285793 0.4231056568285793 0.4231056568285793 0.4231056568285793 0.4140956298183741 0.4140956298183741 0.4140956298183741 
0.4140956298183741 0.4039083541378929 0.4039083541378929 0.4039083541378929 0.4039083541378929 0.3925514320653082 0.3925514320653082 0.3925514320653082 0.3925514320653082 
0.3800862359247608 0.3800862359247608 0.3800862359247608 0.3800862359247608 0.366642986727036 0.366642986727036 0.366642986727036 0.366642986727036 0.3524336564575502 
0.3524336564575502 0.3524336564575502 0.3524336564575502 0.3377579831125798 0.3377579831125798 0.3377579831125798 0.3377579831125798 0.3229961667939902 0.3229961667939902 
0.3229961667939902 0.3229961667939902 0.3085816671394049 0.3085816671394049 0.3085816671394049 0.3085816671394049 0.2949509774563576 0.2949509774563576 0.2949509774563576 
0.2949509774563576 0.2824755943822146 0.2824755943822146 0.2824755943822146 0.2824755943822146 0.2713925206990662 0.2713925206990662 0.2713925206990662 0.2713925206990662 
0.2617565514101223 0.2617565514101223 0.2617565514101223 0.2617565514101223 0.2534324817846458 0.2534324817846458 0.2534324817846458 0.2534324817846458 0.246128377083309 
0.246128377083309 0.246128377083309 0.246128377083309 0.239453298196006 0.239453298196006 0.239453298196006 0.239453298196006 0.2329766019358583 0.2329766019358583 
0.2329766019358583 0.2329766019358583 0.2262726361946308 0.2262726361946308 0.2262726361946308 0.2262726361946308 0.2189461837462888 0.2189461837462888 0.2189461837462888 
0.2189461837462888 0.2106424229156415 0.2106424229156415 0.2106424229156415 0.2106424229156415 0.2010482274304854 0.2010482274304854 0.2010482274304854 0.2010482274304854 
0.1898911308777085 0.1898911308777085 0.1898911308777085 0.1898911308777085 0.1769407041560356 0.1769407041560356 0.1769407041560356 0.1769407041560356 0.1620160506761564 
0.1620160506761564 0.1620160506761564 0.1620160506761564 0.1450035963209988 0.1450035963209988 0.1450035963209988 0.1450035963209988 0.1258926396393943 0.1258926396393943 
0.1258926396393943 0.1258926396393943 0.1048445095370819 0.1048445095370819 0.1048445095370819 0.1048445095370819 0.0823240487220803 0.0823240487220803 0.0823240487220803 
0.0823240487220803 0.05931387677909204 0.05931387677909204 0.05931387677909204 0.05931387677909204 0.03751638633628337 0.03751638633628337 0.03751638633628337 0.03751638633628337 
0.01930567887766561 0.01930567887766561 0.01930567887766561 0.01930567887766561 0.007681680747289699 0.007681680747289699 0.007681680747289699 0.007681680747289699 -0.00940360875670997 
-0.00940360875670997 -0.00940360875670997 -0.00940360875670997 -0.03384266404757978 -0.03384266404757978 -0.03384266404757978 -0.03384266404757978 -0.05930983084274484 -0.05930983084274484 
-0.05930983084274484 -0.05930983084274484 -0.08399058585443804 -0.08399058585443804 -0.08399058585443804 -0.08399058585443804 -0.1069868362947931 -0.1069868362947931 -0.1069868362947931 
-0.1069868362947931 -0.1278675063817921 -0.1278675063817921 -0.1278675063817921 -0.1278675063817921 -0.1464760852190408 -0.1464760852190408 -0.1464760852190408 -0.1464760852190408 
-0.1628242950196221 -0.1628242950196221 -0.1628242950196221 -0.1628242950196221 -0.1770306478629564 -0.1770306478629564 -0.1770306478629564 -0.1770306478629564 -0.189284993359209 
-0.189284993359209 -0.189284993359209 -0.189284993359209 -0.1998291894123794 -0.1998291894123794 -0.1998291894123794 -0.1998291894123794 -0.2089481668775011 -0.2089481668775011 
-0.2089481668775011 -0.2089481668775011 -0.2169673113341142 -0.2169673113341142 -0.2169673113341142 -0.2169673113341142 -0.2242522113761537 -0.2242522113761537 -0.2242522113761537 
-0.2242522113761537 -0.2312059557650286 -0.2312059557650286 -0.2312059557650286 -0.2312059557650286 -0.2382580104258284 -0.2382580104258284 -0.2382580104258284 -0.2382580104258284 
-0.245838668489464 -0.245838668489464 -0.245838668489464 -0.245838668489464 -0.2543362435296466 -0.2543362435296466 -0.2543362435296466 -0.2543362435296466 -0.2640419152672173 
-0.2640419152672173 -0.2640419152672173 -0.2640419152672173 -0.2750971479787475 -0.2750971479787475 -0.2750971479787475 -0.2750971479787475 -0.2874639177516601 -0.2874639177516601 
-0.2874639177516601 -0.2874639177516601 -0.3009319997597106 -0.3009319997597106 -0.3009319997597106 -0.3009319997597106 -0.3151620551540351 -0.3151620551540351 -0.3151620551540351 
-0.3151620551540351 -0.329748650800432 -0.329748650800432 -0.329748650800432 -0.329748650800432 -0.3442828499853719 -0.3442828499853719 -0.3442828499853719 -0.3442828499853719 
-0.3583997171712483 -0.3583997171712483 -0.3583997171712483 -0.3583997171712483 -0.3718055429048038 -0.3718055429048038 -0.3718055429048038 -0.3718055429048038 -0.3842869502243138 
-0.3842869502243138 -0.3842869502243138 -0.3842869502243138 -0.3957073498303372 -0.3957073498303372 -0.3957073498303372 -0.3957073498303372 -0.4059963828999771 -0.4059963828999771 
-0.4059963828999771 -0.4059963828999771 -0.4151366757606328 -0.4151366757606328 -0.4151366757606328 -0.4151366757606328 -0.4231506368257408 -0.4231506368257408 -0.4231506368257408 
-0.4231506368257408 -0.4300887221787328 -0.4300887221787328 -0.4300887221787328 -0.4300887221787328 -0.4360197201357107 -0.4360197201357107 -0.4360197201357107 -0.4360197201357107 
-0.4410230981074195 -0.4410230981074195 -0.4410230981074195 -0.4410230981074195 -0.4451832054522553 -0.4451832054522553 -0.4451832054522553 -0.4451832054522553 -0.4485850329593915 
-0.4485850329593915 -0.4485850329593915 -0.4485850329593915 -0.4513112209715891 -0.4513112209715891 -0.4513112209715891 -0.4513112209715891 -0.4534400387554396 -0.4534400387554396 
-0.4534400387554396 -0.4534400387554396 -0.4550441020320829 -0.4550441020320829 -0.4550441020320829 -0.4550441020320829 -0.4561896406276028 -0.4561896406276028 -0.4561896406276028 
-0.4561896406276028 -0.4569361683051184 -0.4569361683051184 -0.4569361683051184 -0.4569361683051184 -0.4573364402010142 -0.4573364402010142 -0.4573364402010142 -0.4573364402010142 
-0.4574366099804684 -0.4574366099804684 -0.4574366099804684 -0.4574366099804684 -0.4572765476126401 -0.4572765476126401 -0.4572765476126401 -0.4572765476126401 -0.456890270782539 
-0.456890270782539 -0.456890270782539 -0.456890270782539 -0.4563062291032236 -0.4563062291032236 -0.4563062291032236 -0.4563062291032236 -0.4555477331382226 -0.4555477331382226 
-0.4555477331382226 -0.4555477331382226 -0.454633397567349 -0.454633397567349 -0.454633397567349 -0.454633397567349 -0.4535775556869844 -0.4535775556869844 -0.4535775556869844 
-0.4535775556869844 -0.452390635263177 -0.452390635263177 -0.452390635263177 -0.452390635263177 -0.4510794901244219 -0.4510794901244219 -0.4510794901244219 -0.4510794901244219 
-0.4496476842016566 -0.4496476842016566 -0.4496476842016566 -0.4496476842016566 -0.448095726800138 -0.448095726800138 -0.448095726800138 -0.448095726800138 -0.446421259701463 
-0.446421259701463 -0.446421259701463 -0.446421259701463 -0.4446191982139712 -0.4446191982139712 -0.4446191982139712 -0.4446191982139712 -0.4426818295570876 -0.4426818295570876 
-0.4426818295570876 -0.4426818295570876 -0.440598873104753 -0.440598873104753 -0.440598873104753 -0.440598873104753 -0.4383575424329823 -0.4383575424329823 -0.4383575424329823 
-0.4383575424329823 -0.43594259535212 -0.43594259535212 -0.43594259535212 -0.43594259535212 -0.433336287785015 -0.433336287785015 -0.433336287785015 -0.433336287785015 
-0.4305183633309049 -0.4305183633309049 -0.4305183633309049 -0.4305183633309049 -0.4274660462880528 -0.4274660462880528 -0.4274660462880528 -0.4274660462880528 -0.4241540488110364 
-0.4241540488110364 -0.4241540488110364 -0.4241540488110364 -0.4205546052524589 -0.4205546052524589 -0.4205546052524589 -0.4205546052524589 -0.4166375484592296 -0.4166375484592296 
-0.4166375484592296 -0.4166375484592296 -0.4123704442795855 -0.4123704442795855 -0.4123704442795855 -0.4123704442795855 -0.4077188029540801 -0.4077188029540801 -0.4077188029540801 
-0.4077188029540801 -0.4026463886570065 -0.4026463886570065 -0.4026463886570065 -0.4026463886570065 -0.3971156512223248 -0.3971156512223248 -0.3971156512223248 -0.3971156512223248 
-0.3910883070201397 -0.3910883070201397 -0.3910883070201397 -0.3910883070201397 -0.3845260989024334 -0.3845260989024334 -0.3845260989024334 -0.3845260989024334 -0.3773917678228901 
-0.3773917678228901 -0.3773917678228901 -0.3773917678228901 -0.3696502706190684 -0.3696502706190684 -0.3696502706190684 -0.3696502706190684 -0.3612702786957895 -0.3612702786957895 
-0.3612702786957895 -0.3612702786957895 -0.3522259896756815 -0.3522259896756815 -0.3522259896756815 -0.3522259896756815 -0.3424992764982176 -0.3424992764982176 -0.3424992764982176 
-0.3424992764982176 -0.3320821829775972 -0.3320821829775972 -0.3320821829775972 -0.3320821829775972 -0.3209797471552507 -0.3209797471552507 -0.3209797471552507 -0.3209797471552507 
-0.3092130878694925 -0.3092130878694925 -0.3092130878694925 -0.3092130878694925 -0.2968226178170515 -0.2968226178170515 -0.2968226178170515 -0.2968226178170515 -0.2838711382964925 
-0.2838711382964925 -0.2838711382964925 -0.2838711382964925 -0.2704464169032881 -0.2704464169032881 -0.2704464169032881 -0.2704464169032881 -0.2566626437368287 -0.2566626437368287 
-0.2566626437368287 -0.2566626437368287 -0.2426599110777476 -0.2426599110777476 -0.2426599110777476 -0.2426599110777476 -0.2286006017811031 -0.2286006017811031 -0.2286006017811031 
-0.2286006017811031 -0.2146613907835517 -0.2146613907835517 -0.2146613907835517 -0.2146613907835517 -0.2010196243305999 -0.2010196243305999 -0.2010196243305999 -0.2010196243305999 
-0.1878333713935153 -0.1878333713935153 -0.1878333713935153 -0.1878333713935153 -0.1752156426046758 -0.1752156426046758 -0.1752156426046758 -0.1752156426046758 -0.1632050817540256 
-0.1632050817540256 -0.1632050817540256 -0.1632050817540256 -0.1517371960354111 -0.1517371960354111 -0.1517371960354111 -0.1517371960354111 -0.1406205114650352 -0.1406205114650352 
-0.1406205114650352 -0.1406205114650352 -0.1295192485381333 -0.1295192485381333 -0.1295192485381333 -0.1295192485381333 -0.1179370972905954 -0.1179370972905954 -0.1179370972905954 
-0.1179370972905954 -0.1051843036336293 -0.1051843036336293 -0.1051843036336293 -0.1051843036336293 -0.09028538528637903 -0.09028538528637903 -0.09028538528637903 -0.09028538528637903 
-0.07170851029089481 -0.07170851029089481 -0.07170851029089481 -0.07170851029089481 -0.04644891185935391 -0.04644891185935391 -0.04644891185935391 -0.04644891185935391 -0.005405805886460469 
-0.005405805886460469 -0.005405805886460469 -0.005405805886460469 0.04180354284392056 0.04180354284392056 0.04180354284392056 0.04180354284392056 0.06952338766067505 0.06952338766067505 
0.06952338766067505 0.06952338766067505 0.08964642354314958 0.08964642354314958 0.08964642354314958 0.08964642354314958 0.1056032295916643 0.1056032295916643 0.1056032295916643 
0.1056032295916643 0.1190365874230888 0.1190365874230888 0.1190365874230888 0.1190365874230888 0.1309647902060482 0.1309647902060482 0.1309647902060482 0.1309647902060482 
0.1421094818657015 0.1421094818657015 0.1421094818657015 0.1421094818657015 0.1530078922484531 0.1530078922484531 0.1530078922484531 0.1530078922484531 0.1640522451357412 
0.1640522451357412 0.1640522451357412 0.1640522451357412 0.1755038948327826 0.1755038948327826 0.1755038948327826 0.1755038948327826 0.1875028420443678 0.1875028420443678 
0.1875028420443678 0.1875028420443678 0.2000817466721782 0.2000817466721782 0.2000817466721782 0.2000817466721782 0.2131864396648979 0.2131864396648979 0.2131864396648979 
0.2131864396648979 0.2267006335142397 0.2267006335142397 0.2267006335142397 0.2267006335142397 0.2404709689922172 0.2404709689922172 0.2404709689922172 0.2404709689922172 
0.2543290533770931 0.2543290533770931 0.2543290533770931 0.2543290533770931 0.2681086058386842 0.2681086058386842 0.2681086058386842 0.2681086058386842 0.2816572727941891 
0.2816572727941891 0.2816572727941891 0.2816572727941891 0.2948436509131651 0.2948436509131651 0.2948436509131651 0.2948436509131651 0.3075605102759788 0.3075605102759788 
0.3075605102759788 0.3075605102759788 0.3197252889729856 0.3197252889729856 0.3197252889729856 0.3197252889729856 0.3312788047068448 0.3312788047068448 0.3312788047068448 
0.3312788047068448 0.3421829266882263 0.3421829266882263 0.3421829266882263 0.3421829266882263 0.3524177462223305 0.3524177462223305 0.3524177462223305 0.3524177462223305 
0.3619786101678211 0.3619786101678211 0.3619786101678211 0.3619786101678211 0.370873247127545 0.370873247127545 0.370873247127545 0.370873247127545 0.379119119280506 