Title = Quad200
FileType = Solution
Variables = q
Zone T = Quad200
ZoneType = FETriangle
Nodes = 160000
Elements = 80000
DataPacking = Block
StrandID = 12
SolutionTime = 1.1
0.3606692605381726 0.3606692605381726 0.3606692605381726 0.3606692605381726 0.3625952334958871 0.3625952334958871 0.3625952334958871 0.3625952334958871 0.3644663974440594 0.3644663974440594 
0.3644663974440594 0.3644663974440594 0.3662829356768976 0.3662829356768976 0.3662829356768976 0.3662829356768976 0.3680450678130325 0.3680450678130325 0.3680450678130325 
0.3680450678130325 0.3697530465363079 0.3697530465363079 0.3697530465363079 0.3697530465363079 0.3714071539564807 0.3714071539564807 0.3714071539564807 0.3714071539564807 
0.373007697424062 0.373007697424062 0.373007697424062 0.373007697424062 0.3745550044337343 0.3745550044337343 0.3745550044337343 0.3745550044337343 0.376049415857886 
0.376049415857886 0.376049415857886 0.376049415857886 0.3774912760092427 0.3774912760092427 0.3774912760092427 0.3774912760092427 0.3788809166829184 0.3788809166829184 
0.3788809166829184 0.3788809166829184 0.3802186299739323 0.3802186299739323 0.3802186299739323 0.3802186299739323 0.3815046207184332 0.3815046207184332 0.3815046207184332 
0.3815046207184332 0.3827389230519876 0.3827389230519876 0.3827389230519876 0.3827389230519876 0.3839212557688845 0.3839212557688845 0.3839212557688845 0.3839212557688845 
0.3850507766754063 0.3850507766754063 0.3850507766754063 0.3850507766754063 0.3861256757009904 0.3861256757009904 0.3861256757009904 0.3861256757009904 0.38714251914894 
0.38714251914894 0.38714251914894 0.38714251914894 0.3880952227824984 0.3880952227824984 0.3880952227824984 0.3880952227824984 0.3889734902326663 0.3889734902326663 
0.3889734902326663 0.3889734902326663 0.3897605084017429 0.3897605084017429 0.3897605084017429 0.3897605084017429 0.3904296472333911 0.3904296472333911 0.3904296472333911 
0.3904296472333911 0.3909398735628156 0.3909398735628156 0.3909398735628156 0.3909398735628156 0.3912295698897164 0.3912295698897164 0.3912295698897164 0.3912295698897164 
0.3912084589282793 0.3912084589282793 0.3912084589282793 0.3912084589282793 0.3907478473628079 0.3907478473628079 0.3907478473628079 0.3907478473628079 0.3896687574713903 
0.3896687574713903 0.3896687574713903 0.3896687574713903 0.3877279644387077 0.3877279644387077 0.3877279644387077 0.3877279644387077 0.3846026683192306 0.3846026683192306 
0.3846026683192306 0.3846026683192306 0.3798745348782118 0.3798745348782118 0.3798745348782118 0.3798745348782118 0.3730144747622595 0.3730144747622595 0.3730144747622595 
0.3730144747622595 0.3633701994671168 0.3633701994671168 0.3633701994671168 0.3633701994671168 0.3501598703999941 0.3501598703999941 0.3501598703999941 0.3501598703999941 
0.3324779628453156 0.3324779628453156 0.3324779628453156 0.3324779628453156 0.3093247480248441 0.3093247480248441 0.3093247480248441 0.3093247480248441 0.279680429816244 
0.279680429816244 0.279680429816244 0.279680429816244 0.242665773668836 0.242665773668836 0.242665773668836 0.242665773668836 0.1978797351363023 0.1978797351363023 
0.1978797351363023 0.1978797351363023 0.146102019014107 0.146102019014107 0.146102019014107 0.146102019014107 0.0906739119327002 0.0906739119327002 0.0906739119327002 
0.0906739119327002 0.03989822657365476 0.03989822657365476 0.03989822657365476 0.03989822657365476 0.009984404481593229 0.009984404481593229 0.009984404481593229 0.009984404481593229 
0.004759468909292575 0.004759468909292575 0.004759468909292575 0.004759468909292575 0.004587441104032768 0.004587441104032768 0.004587441104032768 0.004587441104032768 0.0045984948158133 
0.0045984948158133 0.0045984948158133 0.0045984948158133 0.004612747722361386 0.004612747722361386 0.004612747722361386 0.004612747722361386 0.004626074459798952 0.004626074459798952 
0.004626074459798952 0.004626074459798952 0.004638460637468205 0.004638460637468205 0.004638460637468205 0.004638460637468205 0.004650237748728053 0.004650237748728053 0.004650237748728053 
0.004650237748728053 0.004658650371010946 0.004658650371010946 0.004658650371010946 0.004658650371010946 0.004662492928612891 0.004662492928612891 0.004662492928612891 0.004662492928612891 
0.004664160042676084 0.004664160042676084 0.004664160042676084 0.004664160042676084 0.004664432832168058 0.004664432832168058 0.004664432832168058 0.004664432832168058 0.004663555094959874 
0.004663555094959874 0.004663555094959874 0.004663555094959874 0.004661593814455352 0.004661593814455352 0.004661593814455352 0.004661593814455352 0.004658023403568507 0.004658023403568507 
0.004658023403568507 0.004658023403568507 0.004511309597009067 0.004511309597009067 0.004511309597009067 0.004511309597009067 -0.003488749155933468 -0.003488749155933468 -0.003488749155933468 
-0.003488749155933468 -0.04415221248694365 -0.04415221248694365 -0.04415221248694365 -0.04415221248694365 -0.1002645197820331 -0.1002645197820331 -0.1002645197820331 -0.1002645197820331 
-0.1566987978685559 -0.1566987978685559 -0.1566987978685559 -0.1566987978685559 -0.2073988186598797 -0.2073988186598797 -0.2073988186598797 -0.2073988186598797 -0.2503304843696745 
-0.2503304843696745 -0.2503304843696745 -0.2503304843696745 -0.2853407448954904 -0.2853407448954904 -0.2853407448954904 -0.2853407448954904 -0.3131031918461165 -0.3131031918461165 
-0.3131031918461165 -0.3131031918461165 -0.3346049572350014 -0.3346049572350014 -0.3346049572350014 -0.3346049572350014 -0.3508963857556567 -0.3508963857556567 -0.3508963857556567 
-0.3508963857556567 -0.3629702509656358 -0.3629702509656358 -0.3629702509656358 -0.3629702509656358 -0.3717078277040814 -0.3717078277040814 -0.3717078277040814 -0.3717078277040814 
-0.3778600914424229 -0.3778600914424229 -0.3778600914424229 -0.3778600914424229 -0.3820471651300779 -0.3820471651300779 -0.3820471651300779 -0.3820471651300779 -0.3847673058161858 
-0.3847673058161858 -0.3847673058161858 -0.3847673058161858 -0.3864108549187356 -0.3864108549187356 -0.3864108549187356 -0.3864108549187356 -0.387276307230303 -0.387276307230303 
-0.387276307230303 -0.387276307230303 -0.387586549328687 -0.387586549328687 -0.387586549328687 -0.387586549328687 -0.3875040663113667 -0.3875040663113667 -0.3875040663113667 
-0.3875040663113667 -0.3871445874353827 -0.3871445874353827 -0.3871445874353827 -0.3871445874353827 -0.3865883598980582 -0.3865883598980582 -0.3865883598980582 -0.3865883598980582 
-0.3858895680733366 -0.3858895680733366 -0.3858895680733366 -0.3858895680733366 -0.3850838837051151 -0.3850838837051151 -0.3850838837051151 -0.3850838837051151 -0.3841941720208588 
-0.3841941720208588 -0.3841941720208588 -0.3841941720208588 -0.3832346712544397 -0.3832346712544397 -0.3832346712544397 -0.3832346712544397 -0.382213962678693 -0.382213962678693 
-0.382213962678693 -0.382213962678693 -0.3811370173241063 -0.3811370173241063 -0.3811370173241063 -0.3811370173241063 -0.3800065638695074 -0.3800065638695074 -0.3800065638695074 
-0.3800065638695074 -0.3788239757258852 -0.3788239757258852 -0.3788239757258852 -0.3788239757258852 -0.3775898294910095 -0.3775898294910095 -0.3775898294910095 -0.3775898294910095 
-0.3763042465484904 -0.3763042465484904 -0.3763042465484904 -0.3763042465484904 -0.3749670964333526 -0.3749670964333526 -0.3749670964333526 -0.3749670964333526 -0.3735781150392756 
-0.3735781150392756 -0.3735781150392756 -0.3735781150392756 -0.3721369721024739 -0.3721369721024739 -0.3721369721024739 -0.3721369721024739 -0.3706433094584292 -0.3706433094584292 
-0.3706433094584292 -0.3706433094584292 -0.3690967629914118 -0.3690967629914118 -0.3690967629914118 -0.3690967629914118 -0.3674969757543228 -0.3674969757543228 -0.3674969757543228 
-0.3674969757543228 -0.3658436064253954 -0.3658436064253954 -0.3658436064253954 -0.3658436064253954 -0.3641363353352479 -0.3641363353352479 -0.3641363353352479 -0.3641363353352479 
-0.3623748692140499 -0.3623748692140499 -0.3623748692140499 -0.3623748692140499 -0.3605589452250019 -0.3605589452250019 -0.3605589452250019 -0.3605589452250019 -0.3586883345484851 
-0.3586883345484851 -0.3586883345484851 -0.3586883345484851 -0.3567628456313229 -0.3567628456313229 -0.3567628456313229 -0.3567628456313229 -0.3547823271441746 -0.3547823271441746 
-0.3547823271441746 -0.3547823271441746 -0.3527466706575884 -0.3527466706575884 -0.3527466706575884 -0.3527466706575884 -0.3506558130333078 -0.3506558130333078 -0.3506558130333078 
-0.3506558130333078 -0.3485097385220938 -0.3485097385220938 -0.3485097385220938 -0.3485097385220938 -0.3463084805578895 -0.3463084805578895 -0.3463084805578895 -0.3463084805578895 
-0.3440521232385251 -0.3440521232385251 -0.3440521232385251 -0.3440521232385251 -0.3417408024843843 -0.3417408024843843 -0.3417408024843843 -0.3417408024843843 -0.3393747068681042 
-0.3393747068681042 -0.3393747068681042 -0.3393747068681042 -0.3369540781101873 -0.3369540781101873 -0.3369540781101873 -0.3369540781101873 -0.3344792112371447 -0.3344792112371447 
-0.3344792112371447 -0.3344792112371447 -0.3319504544001574 -0.3319504544001574 -0.3319504544001574 -0.3319504544001574 -0.3293682083527764 -0.3293682083527764 -0.3293682083527764 
-0.3293682083527764 -0.3267329255851898 -0.3267329255851898 -0.3267329255851898 -0.3267329255851898 -0.3240451091088861 -0.3240451091088861 -0.3240451091088861 -0.3240451091088861 
-0.3213053108772954 -0.3213053108772954 -0.3213053108772954 -0.3213053108772954 -0.3185141298121849 -0.3185141298121849 -0.3185141298121849 -0.3185141298121849 -0.3156722093772169 
-0.3156722093772169 -0.3156722093772169 -0.3156722093772169 -0.3127802345915033 -0.3127802345915033 -0.3127802345915033 -0.3127802345915033 -0.3098389282942215 -0.3098389282942215 
-0.3098389282942215 -0.3098389282942215 -0.3068490463366473 -0.3068490463366473 -0.3068490463366473 -0.3068490463366473 -0.3038113711583932 -0.3038113711583932 -0.3038113711583932 
-0.3038113711583932 -0.3007267028508812 -0.3007267028508812 -0.3007267028508812 -0.3007267028508812 -0.2975958462466253 -0.2975958462466253 -0.2975958462466253 -0.2975958462466253 
-0.2944195916810181 -0.2944195916810181 -0.2944195916810181 -0.2944195916810181 -0.2911986856778057 -0.2911986856778057 -0.2911986856778057 -0.2911986856778057 -0.2879337856482393 
-0.2879337856482393 -0.2879337856482393 -0.2879337856482393 -0.2846253893829932 -0.2846253893829932 -0.2846253893829932 -0.2846253893829932 -0.2812737251021782 -0.2812737251021782 
-0.2812737251021782 -0.2812737251021782 -0.2778785803299604 -0.2778785803299604 -0.2778785803299604 -0.2778785803299604 -0.274439036792656 -0.274439036792656 -0.274439036792656 
-0.274439036792656 -0.2709530624331365 -0.2709530624331365 -0.2709530624331365 -0.2709530624331365 -0.2674168885395967 -0.2674168885395967 -0.2674168885395967 -0.2674168885395967 
-0.2638240673614209 -0.2638240673614209 -0.2638240673614209 -0.2638240673614209 -0.2601640601417757 -0.2601640601417757 -0.2601640601417757 -0.2601640601417757 -0.2564201429158416 
-0.2564201429158416 -0.2564201429158416 -0.2564201429158416 -0.252566348095246 -0.252566348095246 -0.252566348095246 -0.252566348095246 -0.2485631526437437 -0.2485631526437437 
-0.2485631526437437 -0.2485631526437437 -0.2443512513154991 -0.2443512513154991 -0.2443512513154991 -0.2443512513154991 -0.239842813976333 -0.239842813976333 -0.239842813976333 
-0.239842813976333 -0.2349093507293923 -0.2349093507293923 -0.2349093507293923 -0.2349093507293923 -0.2293649420224785 -0.2293649420224785 -0.2293649420224785 -0.2293649420224785 
-0.2229430035574558 -0.2229430035574558 -0.2229430035574558 -0.2229430035574558 -0.2152635864711558 -0.2152635864711558 -0.2152635864711558 -0.2152635864711558 -0.205785659105867 
-0.205785659105867 -0.205785659105867 -0.205785659105867 -0.1937328738604096 -0.1937328738604096 -0.1937328738604096 -0.1937328738604096 -0.177966396525114 -0.177966396525114 
-0.177966396525114 -0.177966396525114 -0.156737064540831 -0.156737064540831 -0.156737064540831 -0.156737064540831 -0.1271209696117342 -0.1271209696117342 -0.1271209696117342 
-0.1271209696117342 -0.08351199981958851 -0.08351199981958851 -0.08351199981958851 -0.08351199981958851 -0.01336422594676782 -0.01336422594676782 -0.01336422594676782 -0.01336422594676782 
0.07153882310252907 0.07153882310252907 0.07153882310252907 0.07153882310252907 0.120549906451302 0.120549906451302 0.120549906451302 0.120549906451302 0.1531172324951048 
0.1531172324951048 0.1531172324951048 0.1531172324951048 0.1763570521881513 0.1763570521881513 0.1763570521881513 0.1763570521881513 0.1935960913994383 0.1935960913994383 
0.1935960913994383 0.1935960913994383 0.2067480572843617 0.2067480572843617 0.2067480572843617 0.2067480572843617 0.2170470683689629 0.2170470683689629 0.2170470683689629 
0.2170470683689629 0.2253358807798883 0.2253358807798883 0.2253358807798883 0.2253358807798883 0.2322057252379705 0.2322057252379705 0.2322057252379705 0.2322057252379705 
0.2380756486431711 0.2380756486431711 0.2380756486431711 0.2380756486431711 0.2432428565063045 0.2432428565063045 0.2432428565063045 0.2432428565063045 0.2479170974903976 
0.2479170974903976 0.2479170974903976 0.2479170974903976 0.2522451762848978 0.2522451762848978 0.2522451762848978 0.2522451762848978 0.2563287889817155 0.2563287889817155 
0.2563287889817155 0.2563287889817155 0.2602375716221834 0.2602375716221834 0.2602375716221834 0.2602375716221834 0.2640186044966102 0.2640186044966102 0.2640186044966102 
0.2640186044966102 0.2677033176142926 0.2677033176142926 0.2677033176142926 0.2677033176142926 0.2713123342818533 0.2713123342818533 0.2713123342818533 0.2713123342818533 
0.2748589190521972 0.2748589190521972 0.2748589190521972 0.2748589190521972 0.2783514034315845 0.2783514034315845 0.2783514034315845 0.2783514034315845 0.2817948442891164 
0.2817948442891164 0.2817948442891164 0.2817948442891164 0.2851921463177023 0.2851921463177023 0.2851921463177023 0.2851921463177023 0.288544814294464 0.288544814294464 
0.288544814294464 0.288544814294464 0.2918534525591603 0.2918534525591603 0.2918534525591603 0.2918534525591603 0.2951180938458686 0.2951180938458686 0.2951180938458686 
0.2951180938458686 0.2983384141793289 0.2983384141793289 0.2983384141793289 0.2983384141793289 0.3015138724945205 0.3015138724945205 0.3015138724945205 0.3015138724945205 
0.3046438010085594 0.3046438010085594 0.3046438010085594 0.3046438010085594 0.3077274636652674 0.3077274636652674 0.3077274636652674 0.3077274636652674 0.3107640940492279 
0.3107640940492279 0.3107640940492279 0.3107640940492279 0.3137529201884487 0.3137529201884487 0.3137529201884487 0.3137529201884487 0.3166931810255474 0.3166931810255474 
0.3166931810255474 0.3166931810255474 0.3195841376058063 0.3195841376058063 0.3195841376058063 0.3195841376058063 0.3224250809062927 0.3224250809062927 0.3224250809062927 
0.3224250809062927 0.3252153375077205 0.3252153375077205 0.3252153375077205 0.3252153375077205 0.3279542738508536 0.3279542738508536 0.3279542738508536 0.3279542738508536 
0.3306412995293181 0.3306412995293181 0.3306412995293181 0.3306412995293181 0.3332758698898736 0.3332758698898736 0.3332758698898736 0.3332758698898736 0.3358574880994588 
0.3358574880994588 0.3358574880994588 0.3358574880994588 0.3383857067705206 0.3383857067705206 0.3383857067705206 0.3383857067705206 0.3408601291954566 0.3408601291954566 
0.3408601291954566 0.3408601291954566 0.3432804102173953 0.3432804102173953 0.3432804102173953 0.3432804102173953 0.3456462567513864 0.3456462567513864 0.3456462567513864 
0.3456462567513864 0.3479574279632339 0.3479574279632339 0.3479574279632339 0.3479574279632339 0.3502137351102766 0.3502137351102766 0.3502137351102766 0.3502137351102766 
0.3524150410476923 0.3524150410476923 0.3524150410476923 0.3524150410476923 0.3545612594044601 0.3545612594044601 0.3545612594044601 0.3545612594044601 0.3566523534343209 
0.3566523534343209 0.3566523534343209 0.3566523534343209 0.3586883345484851 0.3586883345484851 0.3586883345484851 0.3586883345484851 0.362595233495887 0.362595233495887 
0.362595233495887 0.362595233495887 0.3645765450224606 0.3645765450224606 0.3645765450224606 0.3645765450224606 0.3665029756139389 0.3665029756139389 0.3665029756139389 
0.3665029756139389 0.3683746620425575 0.3683746620425575 0.3683746620425575 0.3683746620425575 0.3701917793982848 0.3701917793982848 0.3701917793982848 0.3701917793982848 
0.3719545381423531 0.3719545381423531 0.3719545381423531 0.3719545381423531 0.373663180820425 0.373663180820425 0.373663180820425 0.373663180820425 0.3753179783332155 
0.3753179783332155 0.3753179783332155 0.3753179783332155 0.3769192255310003 0.3769192255310003 0.3769192255310003 0.3769192255310003 0.3784672356356487 0.3784672356356487 
0.3784672356356487 0.3784672356356487 0.3799623324886099 0.3799623324886099 0.3799623324886099 0.3799623324886099 0.3814048386894459 0.3814048386894459 0.3814048386894459 
0.3814048386894459 0.3827950560294148 0.3827950560294148 0.3827950560294148 0.3827950560294148 0.3841332317871252 0.3841332317871252 0.3841332317871252 0.3841332317871252 
0.3854194997924559 0.3854194997924559 0.3854194997924559 0.3854194997924559 0.3866537778135215 0.3866537778135215 0.3866537778135215 0.3866537778135215 0.3878355917042745 
0.3878355917042745 0.3878355917042745 0.3878355917042745 0.3889637806660293 0.3889637806660293 0.3889637806660293 0.3889637806660293 0.3900360157782521 0.3900360157782521 
0.3900360157782521 0.3900360157782521 0.3910480348640045 0.3910480348640045 0.3910480348640045 0.3910480348640045 0.3919924607815751 0.3919924607815751 0.3919924607815751 
0.3919924607815751 0.3928570288909277 0.3928570288909277 0.3928570288909277 0.3928570288909277 0.3936220055682134 0.3936220055682134 0.3936220055682134 0.3936220055682134 
0.3942565383239441 0.3942565383239441 0.3942565383239441 0.3942565383239441 0.3947136477670071 0.3947136477670071 0.3947136477670071 0.3947136477670071 0.3949235506280651 
0.3949235506280651 0.3949235506280651 0.3949235506280651 0.3947851222390438 0.3947851222390438 0.3947851222390438 0.3947851222390438 0.3941557530487227 0.3941557530487227 
0.3941557530487227 0.3941557530487227 0.3928389107504755 0.3928389107504755 0.3928389107504755 0.3928389107504755 0.3905699539829526 0.3905699539829526 0.3905699539829526 
0.3905699539829526 0.3870008089652264 0.3870008089652264 0.3870008089652264 0.3870008089652264 0.3816844037508759 0.3816844037508759 0.3816844037508759 0.3816844037508759 
0.3740603346876559 0.3740603346876559 0.3740603346876559 0.3740603346876559 0.3634441919001802 0.3634441919001802 0.3634441919001802 0.3634441919001802 0.3490248829790201 
0.3490248829790201 0.3490248829790201 0.3490248829790201 0.3298777509594856 0.3298777509594856 0.3298777509594856 0.3298777509594856 0.305007708294036 0.305007708294036 
0.305007708294036 0.305007708294036 0.273451079119213 0.273451079119213 0.273451079119213 0.273451079119213 0.2344992653287235 0.2344992653287235 0.2344992653287235 
0.2344992653287235 0.1881698140457018 0.1881698140457018 0.1881698140457018 0.1881698140457018 0.1360737621277461 0.1360737621277461 0.1360737621277461 0.1360737621277461 
0.0826181607881479 0.0826181607881479 0.0826181607881479 0.0826181607881479 0.03656123497581348 0.03656123497581348 0.03656123497581348 0.03656123497581348 0.01304388021642581 
0.01304388021642581 0.01304388021642581 0.01304388021642581 0.009382229286501117 0.009382229286501117 0.009382229286501117 0.009382229286501117 0.009217206372438176 0.009217206372438176 
0.009217206372438176 0.009217206372438176 0.009229335708919227 0.009229335708919227 0.009229335708919227 0.009229335708919227 0.009246553672847557 0.009246553672847557 0.009246553672847557 
0.009246553672847557 0.009262084127937772 0.009262084127937772 0.009262084127937772 0.009262084127937772 0.00927576522887916 0.00927576522887916 0.00927576522887916 0.00927576522887916 
0.009286746125464011 0.009286746125464011 0.009286746125464011 0.009286746125464011 0.009294309842346301 0.009294309842346301 0.009294309842346301 0.009294309842346301 0.009298955897788182 
0.009298955897788182 0.009298955897788182 0.009298955897788182 0.009301153675845891 0.009301153675845891 0.009301153675845891 0.009301153675845891 0.009301168977358266 0.009301168977358266 
0.009301168977358266 0.009301168977358266 0.009299119755338384 0.009299119755338384 0.009299119755338384 0.009299119755338384 0.009295039270828795 0.009295039270828795 0.009295039270828795 
0.009295039270828795 0.009286227035251978 0.009286227035251978 0.009286227035251978 0.009286227035251978 0.009038422579814694 0.009038422579814694 0.009038422579814694 0.009038422579814694 
-0.002662453896227959 -0.002662453896227959 -0.002662453896227959 -0.002662453896227959 -0.05227203504649114 -0.05227203504649114 -0.05227203504649114 -0.05227203504649114 -0.1111985693102684 
-0.1111985693102684 -0.1111985693102684 -0.1111985693102684 -0.1673793563061382 -0.1673793563061382 -0.1673793563061382 -0.1673793563061382 -0.2165012784216563 -0.2165012784216563 
-0.2165012784216563 -0.2165012784216563 -0.2574279212824615 -0.2574279212824615 -0.2574279212824615 -0.2574279212824615 -0.290427607550339 -0.290427607550339 -0.290427607550339 
-0.290427607550339 -0.3163599945281964 -0.3163599945281964 -0.3163599945281964 -0.3163599945281964 -0.3362826981039572 -0.3362826981039572 -0.3362826981039572 -0.3362826981039572 
-0.3512588316948599 -0.3512588316948599 -0.3512588316948599 -0.3512588316948599 -0.3622662287991536 -0.3622662287991536 -0.3622662287991536 -0.3622662287991536 -0.3701591239558615 
-0.3701591239558615 -0.3701591239558615 -0.3701591239558615 -0.3756569240105373 -0.3756569240105373 -0.3756569240105373 -0.3756569240105373 -0.3793475247189775 -0.3793475247189775 
-0.3793475247189775 -0.3793475247189775 -0.3816987301887875 -0.3816987301887875 -0.3816987301887875 -0.3816987301887875 -0.3830737117961254 -0.3830737117961254 -0.3830737117961254 
-0.3830737117961254 -0.3837477246015649 -0.3837477246015649 -0.3837477246015649 -0.3837477246015649 -0.3839244049498243 -0.3839244049498243 -0.3839244049498243 -0.3839244049498243 
-0.383750783171409 -0.383750783171409 -0.383750783171409 -0.383750783171409 -0.3833305049987166 -0.3833305049987166 -0.3833305049987166 -0.3833305049987166 -0.3827346100336337 
-0.3827346100336337 -0.3827346100336337 -0.3827346100336337 -0.3820105332162783 -0.3820105332162783 -0.3820105332162783 -0.3820105332162783 -0.3811891325941162 -0.3811891325941162 
-0.3811891325941162 -0.3811891325941162 -0.3802899304122081 -0.3802899304122081 -0.3802899304122081 -0.3802899304122081 -0.3793249053191829 -0.3793249053191829 -0.3793249053191829 
-0.3793249053191829 -0.378301151672084 -0.378301151672084 -0.378301151672084 -0.378301151672084 -0.3772226869679872 -0.3772226869679872 -0.3772226869679872 -0.3772226869679872 
-0.3760916430842757 -0.3760916430842757 -0.3760916430842757 -0.3760916430842757 -0.374909027787425 -0.374909027787425 -0.374909027787425 -0.374909027787425 -0.3736751971998158 
-0.3736751971998158 -0.3736751971998158 -0.3736751971998158 -0.3723901406342703 -0.3723901406342703 -0.3723901406342703 -0.3723901406342703 -0.3710536478148202 -0.3710536478148202 
-0.3710536478148202 -0.3710536478148202 -0.3696654048741743 -0.3696654048741743 -0.3696654048741743 -0.3696654048741743 -0.3682250486666601 -0.3682250486666601 -0.3682250486666601 
-0.3682250486666601 -0.3667321974892198 -0.3667321974892198 -0.3667321974892198 -0.3667321974892198 -0.3651864688739491 -0.3651864688739491 -0.3651864688739491 -0.3651864688739491 
-0.3635874905003433 -0.3635874905003433 -0.3635874905003433 -0.3635874905003433 -0.3619349075271021 -0.3619349075271021 -0.3619349075271021 -0.3619349075271021 -0.3602283880733209 
-0.3602283880733209 -0.3602283880733209 -0.3602283880733209 -0.3584676277180732 -0.3584676277180732 -0.3584676277180732 -0.3584676277180732 -0.3566523534343207 -0.3566523534343207 
-0.3566523534343207 -0.3566523534343207 -0.3547823271441747 -0.3547823271441747 -0.3547823271441747 -0.3547823271441747 -0.3528573489715474 -0.3528573489715474 -0.3528573489715474 
-0.3528573489715474 -0.3508772602166808 -0.3508772602166808 -0.3508772602166808 -0.3508772602166808 -0.3488419460542361 -0.3488419460542361 -0.3488419460542361 -0.3488419460542361 
-0.3467513379472461 -0.3467513379472461 -0.3467513379472461 -0.3467513379472461 -0.3446054157659629 -0.3446054157659629 -0.3446054157659629 -0.3446054157659629 -0.3424042096001384 
-0.3424042096001384 -0.3424042096001384 -0.3424042096001384 -0.3401478012541015 -0.3401478012541015 -0.3401478012541015 -0.3401478012541015 -0.3378363254155116 -0.3378363254155116 
-0.3378363254155116 -0.3378363254155116 -0.3354699704905642 -0.3354699704905642 -0.3354699704905642 -0.3354699704905642 -0.33304897910053 -0.33304897910053 -0.33304897910053 
-0.33304897910053 -0.3305736482366625 -0.3305736482366625 -0.3305736482366625 -0.3305736482366625 -0.3280443290724622 -0.3280443290724622 -0.3280443290724622 -0.3280443290724622 
-0.325461426433748 -0.325461426433748 -0.325461426433748 -0.325461426433748 -0.3228253979274123 -0.3228253979274123 -0.3228253979274123 -0.3228253979274123 -0.3201367527283191 
-0.3201367527283191 -0.3201367527283191 -0.3201367527283191 -0.3173960500191849 -0.3173960500191849 -0.3173960500191849 -0.3173960500191849 -0.3146038970682634 -0.3146038970682634 
-0.3146038970682634 -0.3146038970682634 -0.3117609469106116 -0.3117609469106116 -0.3117609469106116 -0.3117609469106116 -0.3088678955647743 -0.3088678955647743 -0.3088678955647743 
-0.3088678955647743 -0.3059254786582677 -0.3059254786582677 -0.3059254786582677 -0.3059254786582677 -0.3029344672368336 -0.3029344672368336 -0.3029344672368336 -0.3029344672368336 
-0.2998956623692409 -0.2998956623692409 -0.2998956623692409 -0.2998956623692409 -0.2968098878920968 -0.2968098878920968 -0.2968098878920968 -0.2968098878920968 -0.2936779802057433 
-0.2936779802057433 -0.2936779802057433 -0.2936779802057433 -0.2905007733365833 -0.2905007733365833 -0.2905007733365833 -0.2905007733365833 -0.2872790763750391 -0.2872790763750391 
-0.2872790763750391 -0.2872790763750391 -0.2840136386572062 -0.2840136386572062 -0.2840136386572062 -0.2840136386572062 -0.2807050953462624 -0.2807050953462624 -0.2807050953462624 
-0.2807050953462624 -0.2773538818924671 -0.2773538818924671 -0.2773538818924671 -0.2773538818924671 -0.2739600994932615 -0.2739600994932615 -0.2739600994932615 -0.2739600994932615 
-0.2705233041234976 -0.2705233041234976 -0.2705233041234976 -0.2705233041234976 -0.2670421775518048 -0.2670421775518048 -0.2670421775518048 -0.2670421775518048 -0.2635140180889433 
-0.2635140180889433 -0.2635140180889433 -0.2635140180889433 -0.2599339590822569 -0.2599339590822569 -0.2599339590822569 -0.2599339590822569 -0.256293781044232 -0.256293781044232 
-0.256293781044232 -0.256293781044232 -0.2525801244249061 -0.2525801244249061 -0.2525801244249061 -0.2525801244249061 -0.2487718289146593 -0.2487718289146593 -0.2487718289146593 
-0.2487718289146593 -0.2448360990518826 -0.2448360990518826 -0.2448360990518826 -0.2448360990518826 -0.240722983947643 -0.240722983947643 -0.240722983947643 -0.240722983947643 
-0.2363574270029584 -0.2363574270029584 -0.2363574270029584 -0.2363574270029584 -0.2316281376126783 -0.2316281376126783 -0.2316281376126783 -0.2316281376126783 -0.2263720739202875 
-0.2263720739202875 -0.2263720739202875 -0.2263720739202875 -0.2203528770591187 -0.2203528770591187 -0.2203528770591187 -0.2203528770591187 -0.2132306628009326 -0.2132306628009326 
-0.2132306628009326 -0.2132306628009326 -0.2045186286449638 -0.2045186286449638 -0.2045186286449638 -0.2045186286449638 -0.193517553905896 -0.193517553905896 -0.193517553905896 
-0.193517553905896 -0.1792087337868434 -0.1792087337868434 -0.1792087337868434 -0.1792087337868434 -0.1600586362209885 -0.1600586362209885 -0.1600586362209885 -0.1600586362209885 
-0.1336113086645935 -0.1336113086645935 -0.1336113086645935 -0.1336113086645935 -0.0955000064679369 -0.0955000064679369 -0.0955000064679369 -0.0955000064679369 -0.03642643671797318 
-0.03642643671797318 -0.03642643671797318 -0.03642643671797318 0.06243351874749006 0.06243351874749006 0.06243351874749006 0.06243351874749006 0.1147276669835283 0.1147276669835283 
0.1147276669835283 0.1147276669835283 0.1494546339841178 0.1494546339841178 0.1494546339841178 0.1494546339841178 0.1744754418214548 0.1744754418214548 0.1744754418214548 
0.1744754418214548 0.1931437167657779 0.1931437167657779 0.1931437167657779 0.1931437167657779 0.2074161829609829 0.2074161829609829 0.2074161829609829 0.2074161829609829 
0.2185786767931022 0.2185786767931022 0.2185786767931022 0.2185786767931022 0.2275231315447682 0.2275231315447682 0.2275231315447682 0.2275231315447682 0.2348839027319923 
0.2348839027319923 0.2348839027319923 0.2348839027319923 0.2411164516941891 0.2411164516941891 0.2411164516941891 0.2411164516941891 0.2465479675423465 0.2465479675423465 
0.2465479675423465 0.2465479675423465 0.25141236098514 0.25141236098514 0.25141236098514 0.25141236098514 0.2558755149691579 0.2558755149691579 0.2558755149691579 
0.2558755149691579 0.2600538969125041 0.2600538969125041 0.2600538969125041 0.2600538969125041 0.2640283625434463 0.2640283625434463 0.2640283625434463 0.2640283625434463 
0.267854362338771 0.267854362338771 0.267854362338771 0.267854362338771 0.2715694509562766 0.2715694509562766 0.2715694509562766 0.2715694509562766 0.275198706216776 
0.275198706216776 0.275198706216776 0.275198706216776 0.2787585570407313 0.2787585570407313 0.2787585570407313 0.2787585570407313 0.2822595521808785 0.2822595521808785 
0.2822595521808785 0.2822595521808785 0.2857082850546108 0.2857082850546108 0.2857082850546108 0.2857082850546108 0.2891087145851385 0.2891087145851385 0.2891087145851385 
0.2891087145851385 0.2924630625913116 0.2924630625913116 0.2924630625913116 0.2924630625913116 0.2957724176769692 0.2957724176769692 0.2957724176769692 0.2957724176769692 
0.2990371380119856 0.2990371380119856 0.2990371380119856 0.2990371380119856 0.3022571178448872 0.3022571178448872 0.3022571178448872 0.3022571178448872 0.3054319626640255 