Title = Quad200
FileType = Solution
Variables = q
Zone T = Quad200
ZoneType = FETriangle
Nodes = 160000
Elements = 80000
DataPacking = Block
StrandID = 11
SolutionTime = 1
0.3916430411255346 0.3916430411255346 0.3916430411255346 0.3916430411255346 0.3937376916316607 0.3937376916316607 0.3937376916316607 0.3937376916316607 0.3957727904294644 0.3957727904294644 
0.3957727904294644 0.3957727904294644 0.3977484837173049 0.3977484837173049 0.3977484837173049 0.3977484837173049 0.3996649508514657 0.3996649508514657 0.3996649508514657 
0.3996649508514657 0.4015224007856099 0.4015224007856099 0.4015224007856099 0.4015224007856099 0.4033210681062285 0.4033210681062285 0.4033210681062285 0.4033210681062285 
0.4050612084879835 0.4050612084879835 0.4050612084879835 0.4050612084879835 0.4067430931684622 0.4067430931684622 0.4067430931684622 0.4067430931684622 0.4083670015799137 
0.4083670015799137 0.4083670015799137 0.4083670015799137 0.4099332103629096 0.4099332103629096 0.4099332103629096 0.4099332103629096 0.4114419752574042 0.4114419752574042 
0.4114419752574042 0.4114419752574042 0.4128934992227389 0.4128934992227389 0.4128934992227389 0.4128934992227389 0.4142878746582432 0.4142878746582432 0.4142878746582432 
0.4142878746582432 0.4156249784427423 0.4156249784427423 0.4156249784427423 0.4156249784427423 0.4169042838743076 0.4169042838743076 0.4169042838743076 0.4169042838743076 
0.4181245312163458 0.4181245312163458 0.4181245312163458 0.4181245312163458 0.4192831659410818 0.4192831659410818 0.4192831659410818 0.4192831659410818 0.4203754085655579 
0.4203754085655579 0.4203754085655579 0.4203754085655579 0.4213927607176975 0.4213927607176975 0.4213927607176975 0.4213927607176975 0.4223206791694786 0.4223206791694786 
0.4223206791694786 0.4223206791694786 0.4231350658943736 0.4231350658943736 0.4231350658943736 0.4231350658943736 0.4237971358644727 0.4237971358644727 0.4237971358644727 
0.4237971358644727 0.4242461391393706 0.4242461391393706 0.4242461391393706 0.4242461391393706 0.4243893586999732 0.4243893586999732 0.4243893586999732 0.4243893586999732 
0.424089062889079 0.424089062889079 0.424089062889079 0.424089062889079 0.4231463519784398 0.4231463519784398 0.4231463519784398 0.4231463519784398 0.4212808849736525 
0.4212808849736525 0.4212808849736525 0.4212808849736525 0.418107359382453 0.418107359382453 0.418107359382453 0.418107359382453 0.4131095112198364 0.4131095112198364 
0.4131095112198364 0.4131095112198364 0.4056133432318877 0.4056133432318877 0.4056133432318877 0.4056133432318877 0.3947627689015085 0.3947627689015085 0.3947627689015085 
0.3947627689015085 0.3795037968733797 0.3795037968733797 0.3795037968733797 0.3795037968733797 0.3585889002367079 0.3585889002367079 0.3585889002367079 0.3585889002367079 
0.3306232486269319 0.3306232486269319 0.3306232486269319 0.3306232486269319 0.2941958399022098 0.2941958399022098 0.2941958399022098 0.2941958399022098 0.2481885561817205 
0.2481885561817205 0.2481885561817205 0.2481885561817205 0.1924621412800194 0.1924621412800194 0.1924621412800194 0.1924621412800194 0.1292847794815363 0.1292847794815363 
0.1292847794815363 0.1292847794815363 0.065980893720166 0.065980893720166 0.065980893720166 0.065980893720166 0.01910390019239285 0.01910390019239285 0.01910390019239285 
0.01910390019239285 0.00561284200671514 0.00561284200671514 0.00561284200671514 0.00561284200671514 0.004906939689039916 0.004906939689039916 0.004906939689039916 0.004906939689039916 
0.004912041080613667 0.004912041080613667 0.004912041080613667 0.004912041080613667 0.004929825362645732 0.004929825362645732 0.004929825362645732 0.004929825362645732 0.00494662619465197 
0.00494662619465197 0.00494662619465197 0.00494662619465197 0.004962170865288526 0.004962170865288526 0.004962170865288526 0.004962170865288526 0.00497649361990713 0.00497649361990713 
0.00497649361990713 0.00497649361990713 0.004989693815604254 0.004989693815604254 0.004989693815604254 0.004989693815604254 0.005002094917519524 0.005002094917519524 0.005002094917519524 
0.005002094917519524 0.005010870065024623 0.005010870065024623 0.005010870065024623 0.005010870065024623 0.005014824716325895 0.005014824716325895 0.005014824716325895 0.005014824716325895 
0.005016439415048089 0.005016439415048089 0.005016439415048089 0.005016439415048089 0.005016502963271432 0.005016502963271432 0.005016502963271432 0.005016502963271432 0.005015252127600749 
0.005015252127600749 0.005015252127600749 0.005015252127600749 0.00501274764940068 0.00501274764940068 0.00501274764940068 0.00501274764940068 0.005008994079339231 0.005008994079339231 
0.005008994079339231 0.005008994079339231 0.005003974274040291 0.005003974274040291 0.005003974274040291 0.005003974274040291 0.004991673818425622 0.004991673818425622 0.004991673818425622 
0.004991673818425622 0.004032861673759521 0.004032861673759521 0.004032861673759521 0.004032861673759521 -0.01856327262118853 -0.01856327262118853 -0.01856327262118853 -0.01856327262118853 
-0.07709383325485966 -0.07709383325485966 -0.07709383325485966 -0.07709383325485966 -0.1440013805685356 -0.1440013805685356 -0.1440013805685356 -0.1440013805685356 -0.2064530760423718 
-0.2064530760423718 -0.2064530760423718 -0.2064530760423718 -0.2597148951101605 -0.2597148951101605 -0.2597148951101605 -0.2597148951101605 -0.3028420868203389 -0.3028420868203389 
-0.3028420868203389 -0.3028420868203389 -0.3365433980327912 -0.3365433980327912 -0.3365433980327912 -0.3365433980327912 -0.3621464930116782 -0.3621464930116782 -0.3621464930116782 
-0.3621464930116782 -0.3811135523482783 -0.3811135523482783 -0.3811135523482783 -0.3811135523482783 -0.3948212746307671 -0.3948212746307671 -0.3948212746307671 -0.3948212746307671 
-0.4044697592502596 -0.4044697592502596 -0.4044697592502596 -0.4044697592502596 -0.4110562190167333 -0.4110562190167333 -0.4110562190167333 -0.4110562190167333 -0.4153807316710065 
-0.4153807316710065 -0.4153807316710065 -0.4153807316710065 -0.4180666000522107 -0.4180666000522107 -0.4180666000522107 -0.4180666000522107 -0.4195864473645501 -0.4195864473645501 
-0.4195864473645501 -0.4195864473645501 -0.420289449968303 -0.420289449968303 -0.420289449968303 -0.420289449968303 -0.4204270667319391 -0.4204270667319391 -0.4204270667319391 
-0.4204270667319391 -0.4201758719712561 -0.4201758719712561 -0.4201758719712561 -0.4201758719712561 -0.4196567521891077 -0.4196567521891077 -0.4196567521891077 -0.4196567521891077 
-0.4189500738447765 -0.4189500738447765 -0.4189500738447765 -0.4189500738447765 -0.4181078666367258 -0.4181078666367258 -0.4181078666367258 -0.4181078666367258 -0.4171629259179506 
-0.4171629259179506 -0.4171629259179506 -0.4171629259179506 -0.4161353453997146 -0.4161353453997146 -0.4161353453997146 -0.4161353453997146 -0.4150370645879241 -0.4150370645879241 
-0.4150370645879241 -0.4150370645879241 -0.4138749342625636 -0.4138749342625636 -0.4138749342625636 -0.4138749342625636 -0.4126527183462114 -0.4126527183462114 -0.4126527183462114 
-0.4126527183462114 -0.4113723602681507 -0.4113723602681507 -0.4113723602681507 -0.4113723602681507 -0.4100347593003722 -0.4100347593003722 -0.4100347593003722 -0.4100347593003722 
-0.4086402321215377 -0.4086402321215377 -0.4086402321215377 -0.4086402321215377 -0.407188779368874 -0.407188779368874 -0.407188779368874 -0.407188779368874 -0.4056802356249239 
-0.4056802356249239 -0.4056802356249239 -0.4056802356249239 -0.4041143521551633 -0.4041143521551633 -0.4041143521551633 -0.4041143521551633 -0.4024908421796703 -0.4024908421796703 
-0.4024908421796703 -0.4024908421796703 -0.4008094059658066 -0.4008094059658066 -0.4008094059658066 -0.4008094059658066 -0.3990697453872672 -0.3990697453872672 -0.3990697453872672 
-0.3990697453872672 -0.3972715731222307 -0.3972715731222307 -0.3972715731222307 -0.3972715731222307 -0.3954146191556563 -0.3954146191556563 -0.3954146191556563 -0.3954146191556563 
-0.393498635903281 -0.393498635903281 -0.393498635903281 -0.393498635903281 -0.3915234025807793 -0.3915234025807793 -0.3915234025807793 -0.3915234025807793 -0.389488729098751 
-0.389488729098751 -0.389488729098751 -0.389488729098751 -0.3873944596018582 -0.3873944596018582 -0.3873944596018582 -0.3873944596018582 -0.3852404756966802 -0.3852404756966802 
-0.3852404756966802 -0.3852404756966802 -0.3830266993807532 -0.3830266993807532 -0.3830266993807532 -0.3830266993807532 -0.3807530956719682 -0.3807530956719682 -0.3807530956719682 
-0.3807530956719682 -0.3784196749324449 -0.3784196749324449 -0.3784196749324449 -0.3784196749324449 -0.3760264948795193 -0.3760264948795193 -0.3760264948795193 -0.3760264948795193 
-0.373573662276606 -0.373573662276606 -0.373573662276606 -0.373573662276606 -0.3710613342975953 -0.3710613342975953 -0.3710613342975953 -0.3710613342975953 -0.3684897195597903 
-0.3684897195597903 -0.3684897195597903 -0.3684897195597903 -0.3658590788219381 -0.3658590788219381 -0.3658590788219381 -0.3658590788219381 -0.3631697253455228 -0.3631697253455228 
-0.3631697253455228 -0.3631697253455228 -0.3604220249189272 -0.3604220249189272 -0.3604220249189272 -0.3604220249189272 -0.3576163955449984 -0.3576163955449984 -0.3576163955449984 
-0.3576163955449984 -0.3547533067924508 -0.3547533067924508 -0.3547533067924508 -0.3547533067924508 -0.3518332788095422 -0.3518332788095422 -0.3518332788095422 -0.3518332788095422 
-0.3488568809931436 -0.3488568809931436 -0.3488568809931436 -0.3488568809931436 -0.3458247302953997 -0.3458247302953997 -0.3458247302953997 -0.3458247302953997 -0.3427374891296552 
-0.3427374891296552 -0.3427374891296552 -0.3427374891296552 -0.3395958628011114 -0.3395958628011114 -0.3395958628011114 -0.3395958628011114 -0.3364005963250199 -0.3364005963250199 
-0.3364005963250199 -0.3364005963250199 -0.333152470389504 -0.333152470389504 -0.333152470389504 -0.333152470389504 -0.3298522960437584 -0.3298522960437584 -0.3298522960437584 
-0.3298522960437584 -0.3265009074016699 -0.3265009074016699 -0.3265009074016699 -0.3265009074016699 -0.3230991511762764 -0.3230991511762764 -0.3230991511762764 -0.3230991511762764 
-0.3196478710927999 -0.3196478710927999 -0.3196478710927999 -0.3196478710927999 -0.3161478839977669 -0.3161478839977669 -0.3161478839977669 -0.3161478839977669 -0.3125999425292353 
-0.3125999425292353 -0.3125999425292353 -0.3125999425292353 -0.3090046761454965 -0.3090046761454965 -0.3090046761454965 -0.3090046761454965 -0.3053624975416212 -0.3053624975416212 
-0.3053624975416212 -0.3053624975416212 -0.3016734541572701 -0.3016734541572701 -0.3016734541572701 -0.3016734541572701 -0.2979369933609084 -0.2979369933609084 -0.2979369933609084 
-0.2979369933609084 -0.2941515932418519 -0.2941515932418519 -0.2941515932418519 -0.2941515932418519 -0.2903141863384758 -0.2903141863384758 -0.2903141863384758 -0.2903141863384758 
-0.2864192677946278 -0.2864192677946278 -0.2864192677946278 -0.2864192677946278 -0.2824575279519225 -0.2824575279519225 -0.2824575279519225 -0.2824575279519225 -0.2784137763008896 
-0.2784137763008896 -0.2784137763008896 -0.2784137763008896 -0.2742638256627171 -0.2742638256627171 -0.2742638256627171 -0.2742638256627171 -0.2699699772969339 -0.2699699772969339 
-0.2699699772969339 -0.2699699772969339 -0.2654743997897979 -0.2654743997897979 -0.2654743997897979 -0.2654743997897979 -0.2606895471620191 -0.2606895471620191 -0.2606895471620191 
-0.2606895471620191 -0.2554845798427892 -0.2554845798427892 -0.2554845798427892 -0.2554845798427892 -0.2496662049745549 -0.2496662049745549 -0.2496662049745549 -0.2496662049745549 
-0.2429516966598471 -0.2429516966598471 -0.2429516966598471 -0.2429516966598471 -0.2349305426963248 -0.2349305426963248 -0.2349305426963248 -0.2349305426963248 -0.2250083685616458 
-0.2250083685616458 -0.2250083685616458 -0.2250083685616458 -0.2123203028869941 -0.2123203028869941 -0.2123203028869941 -0.2123203028869941 -0.195584502660021 -0.195584502660021 
-0.195584502660021 -0.195584502660021 -0.1728205985812124 -0.1728205985812124 -0.1728205985812124 -0.1728205985812124 -0.1407160442606036 -0.1407160442606036 -0.1407160442606036 
-0.1407160442606036 -0.09305204891893616 -0.09305204891893616 -0.09305204891893616 -0.09305204891893616 -0.01713430304862653 -0.01713430304862653 -0.01713430304862653 -0.01713430304862653 
0.07774072585196537 0.07774072585196537 0.07774072585196537 0.07774072585196537 0.132291750775245 0.132291750775245 0.132291750775245 0.132291750775245 0.1680103198580974 
0.1680103198580974 0.1680103198580974 0.1680103198580974 0.1932648345362835 0.1932648345362835 0.1932648345362835 0.1932648345362835 0.2118216742054638 0.2118216742054638 
0.2118216742054638 0.2118216742054638 0.2258543139288754 0.2258543139288754 0.2258543139288754 0.2258543139288754 0.2367654384288782 0.2367654384288782 0.2367654384288782 
0.2367654384288782 0.2455075932116006 0.2455075932116006 0.2455075932116006 0.2455075932116006 0.2527420194786758 0.2527420194786758 0.2527420194786758 0.2527420194786758 
0.2589308748534428 0.2589308748534428 0.2589308748534428 0.2589308748534428 0.26439663927714 0.26439663927714 0.26439663927714 0.26439663927714 0.2693628720555914 
0.2693628720555914 0.2693628720555914 0.2693628720555914 0.273983119392435 0.273983119392435 0.273983119392435 0.273983119392435 0.2783616864421626 0.2783616864421626 
0.2783616864421626 0.2783616864421626 0.2825685777116614 0.2825685777116614 0.2825685777116614 0.2825685777116614 0.2866501673379179 0.2866501673379179 0.2866501673379179 
0.2866501673379179 0.2906367706742667 0.2906367706742667 0.2906367706742667 0.2906367706742667 0.2945478352986787 0.2945478352986787 0.2945478352986787 0.2945478352986787 
0.2983955768810862 0.2983955768810862 0.2983955768810862 0.2983955768810862 0.3021874626365765 0.3021874626365765 0.3021874626365765 0.3021874626365765 0.3059278721541513 
0.3059278721541513 0.3059278721541513 0.3059278721541513 0.309619197210421 0.309619197210421 0.309619197210421 0.309619197210421 0.3132625631651053 0.3132625631651053 
0.3132625631651053 0.3132625631651053 0.3168582979462298 0.3168582979462298 0.3168582979462298 0.3168582979462298 0.320406234514745 0.320406234514745 0.320406234514745 
0.320406234514745 0.3239059046262034 0.3239059046262034 0.3239059046262034 0.3239059046262034 0.3273566623381774 0.3273566623381774 0.3273566623381774 0.3273566623381774 
0.3307577625341629 0.3307577625341629 0.3307577625341629 0.3307577625341629 0.3341084108891056 0.3341084108891056 0.3341084108891056 0.3341084108891056 0.3374077958393794 
0.3374077958393794 0.3374077958393794 0.3374077958393794 0.3406551092810453 0.3406551092810453 0.3406551092810453 0.3406551092810453 0.3438495602341727 0.3438495602341727 
0.3438495602341727 0.3438495602341727 0.3469903841178811 0.3469903841178811 0.3469903841178811 0.3469903841178811 0.3500768492699133 0.3500768492699133 0.3500768492699133 
0.3500768492699133 0.3531082617091997 0.3531082617091997 0.3531082617091997 0.3531082617091997 0.3560839687442302 0.3560839687442302 0.3560839687442302 0.3560839687442302 
0.3590033617859255 0.3590033617859255 0.3590033617859255 0.3590033617859255 0.3618658785747131 0.3618658785747131 0.3618658785747131 0.3618658785747131 0.3646710049413673 
0.3646710049413673 0.3646710049413673 0.3646710049413673 0.3674182761677792 0.3674182761677792 0.3674182761677792 0.3674182761677792 0.3701072779825016 0.3701072779825016 
0.3701072779825016 0.3701072779825016 0.3727376472083194 0.3727376472083194 0.3727376472083194 0.3727376472083194 0.3753090720696604 0.3753090720696604 0.3753090720696604 
0.3753090720696604 0.3778212921630659 0.3778212921630659 0.3778212921630659 0.3778212921630659 0.3802740980922684 0.3802740980922684 0.3802740980922684 0.3802740980922684 
0.3826673307693365 0.3826673307693365 0.3826673307693365 0.3826673307693365 0.3850008803841286 0.3850008803841286 0.3850008803841286 0.3850008803841286 0.387274685045476 
0.387274685045476 0.387274685045476 0.387274685045476 0.389488729098751 0.389488729098751 0.389488729098751 0.389488729098751 0.3937376916316604 0.3937376916316604 
0.3937376916316604 0.3937376916316604 0.3958923037341129 0.3958923037341129 0.3958923037341129 0.3958923037341129 0.3979873019298884 0.3979873019298884 0.3979873019298884 
0.3979873019298884 0.4000227874813757 0.4000227874813757 0.4000227874813757 0.4000227874813757 0.4019988969543245 0.4019988969543245 0.4019988969543245 0.4019988969543245 
0.4039157989797931 0.4039157989797931 0.4039157989797931 0.4039157989797931 0.405773690652973 0.405773690652973 0.405773690652973 0.405773690652973 0.4075727934595843 
0.4075727934595843 0.4075727934595843 0.4075727934595843 0.4093133484744963 0.4093133484744963 0.4093133484744963 0.4093133484744963 0.4109956102715993 0.4109956102715993 
0.4109956102715993 0.4109956102715993 0.4126198383699097 0.4126198383699097 0.4126198383699097 0.4126198383699097 0.4141862838566437 0.4141862838566437 0.4141862838566437 
0.4141862838566437 0.4156951666354582 0.4156951666354582 0.4156951666354582 0.4156951666354582 0.4171466348525127 0.4171466348525127 0.4171466348525127 0.4171466348525127 
0.418540691413142 0.418540691413142 0.418540691413142 0.418540691413142 0.4198770616531324 0.4198770616531324 0.4198770616531324 0.4198770616531324 0.421154959255413 
0.421154959255413 0.421154959255413 0.421154959255413 0.4223726821249727 0.4223726821249727 0.4223726821249727 0.4223726821249727 0.4235269337566243 0.4235269337566243 
0.4235269337566243 0.4235269337566243 0.4246117166477797 0.4246117166477797 0.4246117166477797 0.4246117166477797 0.4256165816868043 0.4256165816868043 0.4256165816868043 
0.4256165816868043 0.4265239423148206 0.4265239423148206 0.4265239423148206 0.4265239423148206 0.4273050793643429 0.4273050793643429 0.4273050793643429 0.4273050793643429 
0.4279143767272809 0.4279143767272809 0.4279143767272809 0.4279143767272809 0.4282812582613945 0.4282812582613945 0.4282812582613945 0.4282812582613945 0.4282992517398099 
0.4282992517398099 0.4282992517398099 0.4282992517398099 0.4278121493694595 0.4278121493694595 0.4278121493694595 0.4278121493694595 0.426596715495516 0.426596715495516 
0.426596715495516 0.426596715495516 0.4243415115664008 0.4243415115664008 0.4243415115664008 0.4243415115664008 0.4206227806387904 0.4206227806387904 0.4206227806387904 
0.4206227806387904 0.4148783154779987 0.4148783154779987 0.4148783154779987 0.4148783154779987 0.4063814751954953 0.4063814751954953 0.4063814751954953 0.4063814751954953 
0.3942195378336218 0.3942195378336218 0.3942195378336218 0.3942195378336218 0.3772842023826959 0.3772842023826959 0.3772842023826959 0.3772842023826959 0.3542888000285319 
0.3542888000285319 0.3542888000285319 0.3542888000285319 0.3238417015924407 0.3238417015924407 0.3238417015924407 0.3238417015924407 0.2846409871497089 0.2846409871497089 
0.2846409871497089 0.2846409871497089 0.2359290898312355 0.2359290898312355 0.2359290898312355 0.2359290898312355 0.1784282024106338 0.1784282024106338 0.1784282024106338 
0.1784282024106338 0.1158612618812399 0.1158612618812399 0.1158612618812399 0.1158612618812399 0.05692278514727418 0.05692278514727418 0.05692278514727418 0.05692278514727418 
0.01897381652318543 0.01897381652318543 0.01897381652318543 0.01897381652318543 0.01036339004551597 0.01036339004551597 0.01036339004551597 0.01036339004551597 0.009885908760795491 
0.009885908760795491 0.009885908760795491 0.009885908760795491 0.009894603472311327 0.009894603472311327 0.009894603472311327 0.009894603472311327 0.009917972282247507 0.009917972282247507 
0.009917972282247507 0.009917972282247507 0.009939543823793133 0.009939543823793133 0.009939543823793133 0.009939543823793133 0.009958779166446843 0.009958779166446843 0.009958779166446843 
0.009958779166446843 0.009975714203093941 0.009975714203093941 0.009975714203093941 0.009975714203093941 0.009990467219641152 0.009990467219641152 0.009990467219641152 0.009990467219641152 
0.0100021887544658 0.0100021887544658 0.0100021887544658 0.0100021887544658 0.01001017545260057 0.01001017545260057 0.01001017545260057 0.01001017545260057 0.01001495414728756 
0.01001495414728756 0.01001495414728756 0.01001495414728756 0.01001699810492425 0.01001699810492425 0.01001699810492425 0.01001699810492425 0.01001656473521374 0.01001656473521374 
0.01001656473521374 0.01001656473521374 0.01001376163854183 0.01001376163854183 0.01001376163854183 0.01001376163854183 0.01000861630486964 0.01000861630486964 0.01000861630486964 
0.01000861630486964 0.01000111631933414 0.01000111631933414 0.01000111631933414 0.01000111631933414 0.009991165848157381 0.009991165848157381 0.009991165848157381 0.009991165848157381 
0.009962949119999672 0.009962949119999672 0.009962949119999672 0.009962949119999672 0.008244635785692895 0.008244635785692895 0.008244635785692895 0.008244635785692895 -0.02555089230307201 
-0.02555089230307201 -0.02555089230307201 -0.02555089230307201 -0.09142786438009801 -0.09142786438009801 -0.09142786438009801 -0.09142786438009801 -0.1593094097133442 -0.1593094097133442 
-0.1593094097133442 -0.1593094097133442 -0.2199059797164743 -0.2199059797164743 -0.2199059797164743 -0.2199059797164743 -0.2703524272060016 -0.2703524272060016 -0.2703524272060016 
-0.2703524272060016 -0.3105723666042628 -0.3105723666042628 -0.3105723666042628 -0.3105723666042628 -0.3416388872934871 -0.3416388872934871 -0.3416388872934871 -0.3416388872934871 
-0.3650078416717837 -0.3650078416717837 -0.3650078416717837 -0.3650078416717837 -0.3821589726788391 -0.3821589726788391 -0.3821589726788391 -0.3821589726788391 -0.3944356580675933 
-0.3944356580675933 -0.3944356580675933 -0.3944356580675933 -0.402984737775668 -0.402984737775668 -0.402984737775668 -0.402984737775668 -0.4087459308690704 -0.4087459308690704 
-0.4087459308690704 -0.4087459308690704 -0.4124646696008633 -0.4124646696008633 -0.4124646696008633 -0.4124646696008633 -0.4147155558224929 -0.4147155558224929 -0.4147155558224929 
-0.4147155558224929 -0.4159298203061877 -0.4159298203061877 -0.4159298203061877 -0.4159298203061877 -0.4164228199198912 -0.4164228199198912 -0.4164228199198912 -0.4164228199198912 
-0.4164192836974026 -0.4164192836974026 -0.4164192836974026 -0.4164192836974026 -0.4160753607179702 -0.4160753607179702 -0.4160753607179702 -0.4160753607179702 -0.4154966282132647 
-0.4154966282132647 -0.4154966282132647 -0.4154966282132647 -0.4147524129071146 -0.4147524129071146 -0.4147524129071146 -0.4147524129071146 -0.4138870427187906 -0.4138870427187906 
-0.4138870427187906 -0.4138870427187906 -0.4129280833667283 -0.4129280833667283 -0.4129280833667283 -0.4129280833667283 -0.411892176909334 -0.411892176909334 -0.411892176909334 
-0.411892176909334 -0.4107890474154721 -0.4107890474154721 -0.4107890474154721 -0.4107890474154721 -0.4096241622210587 -0.4096241622210587 -0.4096241622210587 -0.4096241622210587 
-0.4084004435084637 -0.4084004435084637 -0.4084004435084637 -0.4084004435084637 -0.4071193342680891 -0.4071193342680891 -0.4071193342680891 -0.4071193342680891 -0.405781441448208 
-0.405781441448208 -0.405781441448208 -0.405781441448208 -0.4043869122824704 -0.4043869122824704 -0.4043869122824704 -0.4043869122824704 -0.4029356482926876 -0.4029356482926876 
-0.4029356482926876 -0.4029356482926876 -0.4014274240559499 -0.4014274240559499 -0.4014274240559499 -0.4014274240559499 -0.3998619520682696 -0.3998619520682696 -0.3998619520682696 
-0.3998619520682696 -0.3982389181552233 -0.3982389181552233 -0.3982389181552233 -0.3982389181552233 -0.3965580013234227 -0.3965580013234227 -0.3965580013234227 -0.3965580013234227 
-0.394818885637172 -0.394818885637172 -0.394818885637172 -0.394818885637172 -0.3930212680963615 -0.3930212680963615 -0.3930212680963615 -0.3930212680963615 -0.3911648645157894 
-0.3911648645157894 -0.3911648645157894 -0.3911648645157894 -0.389249414369808 -0.389249414369808 -0.389249414369808 -0.389249414369808 -0.3872746850454759 -0.3872746850454759 
-0.3872746850454759 -0.3872746850454759 -0.3852404756966804 -0.3852404756966804 -0.3852404756966804 -0.3852404756966804 -0.38314662077596 -0.38314662077596 -0.38314662077596 
-0.38314662077596 -0.3809929932695242 -0.3809929932695242 -0.3809929932695242 -0.3809929932695242 -0.3787795076392376 -0.3787795076392376 -0.3787795076392376 -0.3787795076392376 
-0.3765061224666356 -0.3765061224666356 -0.3765061224666356 -0.3765061224666356 -0.3741728427909446 -0.3741728427909446 -0.3741728427909446 -0.3741728427909446 -0.3717797221324462 
-0.3717797221324462 -0.3717797221324462 -0.3717797221324462 -0.3693268641930476 -0.3693268641930476 -0.3693268641930476 -0.3693268641930476 -0.3668144242270732 -0.3668144242270732 
-0.3668144242270732 -0.3668144242270732 -0.3642426100768374 -0.3642426100768374 -0.3642426100768374 -0.3642426100768374 -0.3616116828693655 -0.3616116828693655 -0.3616116828693655 
-0.3616116828693655 -0.3589219573725624 -0.3589219573725624 -0.3589219573725624 -0.3589219573725624 -0.3561738020110361 -0.3561738020110361 -0.3561738020110361 -0.3561738020110361 
-0.3533676385434275 -0.3533676385434275 -0.3533676385434275 -0.3533676385434275 -0.3505039414041068 -0.3505039414041068 -0.3505039414041068 -0.3505039414041068 -0.3475832367118912 
-0.3475832367118912 -0.3475832367118912 -0.3475832367118912 -0.3446061009460328 -0.3446061009460328 -0.3446061009460328 -0.3446061009460328 -0.3415731592835139 -0.3415731592835139 
-0.3415731592835139 -0.3415731592835139 -0.338485083578946 -0.338485083578946 -0.338485083578946 -0.338485083578946 -0.3353425899446121 -0.3353425899446121 -0.3353425899446121 
-0.3353425899446121 -0.3321464358458992 -0.3321464358458992 -0.3321464358458992 -0.3321464358458992 -0.3288974165541378 -0.3288974165541378 -0.3288974165541378 -0.3288974165541378 
-0.3255963606743074 -0.3255963606743074 -0.3255963606743074 -0.3255963606743074 -0.3222441242559642 -0.3222441242559642 -0.3222441242559642 -0.3222441242559642 -0.3188415826483932 
-0.3188415826483932 -0.3188415826483932 -0.3188415826483932 -0.3153896186895279 -0.3153896186895279 -0.3153896186895279 -0.3153896186895279 -0.3118891048866739 -0.3118891048866739 
-0.3118891048866739 -0.3118891048866739 -0.3083408757429067 -0.3083408757429067 -0.3083408757429067 -0.3083408757429067 -0.3047456839778548 -0.3047456839778548 -0.3047456839778548 
-0.3047456839778548 -0.3011041305855217 -0.3011041305855217 -0.3011041305855217 -0.3011041305855217 -0.2974165527154274 -0.2974165527154274 -0.2974165527154274 -0.2974165527154274 
-0.2936828441521492 -0.2936828441521492 -0.2936828441521492 -0.2936828441521492 -0.2899021691042494 -0.2899021691042494 -0.2899021691042494 -0.2899021691042494 -0.2860725088290507 
-0.2860725088290507 -0.2860725088290507 -0.2860725088290507 -0.2821899491593189 -0.2821899491593189 -0.2821899491593189 -0.2821899491593189 -0.2782475709431438 -0.2782475709431438 
-0.2782475709431438 -0.2782475709431438 -0.2742337388977 -0.2742337388977 -0.2742337388977 -0.2742337388977 -0.2701294893700603 -0.2701294893700603 -0.2701294893700603 
-0.2701294893700603 -0.2659046299707699 -0.2659046299707699 -0.2659046299707699 -0.2659046299707699 -0.2615120383485212 -0.2615120383485212 -0.2615120383485212 -0.2615120383485212 
-0.2568792063235671 -0.2568792063235671 -0.2568792063235671 -0.2568792063235671 -0.2518960917867987 -0.2518960917867987 -0.2518960917867987 -0.2518960917867987 -0.246397782578618 
-0.246397782578618 -0.246397782578618 -0.246397782578618 -0.2401399259860287 -0.2401399259860287 -0.2401399259860287 -0.2401399259860287 -0.2327638241047062 -0.2327638241047062 
-0.2327638241047062 -0.2327638241047062 -0.2237460380907908 -0.2237460380907908 -0.2237460380907908 -0.2237460380907908 -0.2123228031112587 -0.2123228031112587 -0.2123228031112587 
-0.2123228031112587 -0.1973688299238888 -0.1973688299238888 -0.1973688299238888 -0.1973688299238888 -0.1771831694505307 -0.1771831694505307 -0.1771831694505307 -0.1771831694505307 
-0.1490641557107296 -0.1490641557107296 -0.1490641557107296 -0.1490641557107296 -0.10835976871225 -0.10835976871225 -0.10835976871225 -0.10835976871225 -0.0458122091100029 
-0.0458122091100029 -0.0458122091100029 -0.0458122091100029 0.06680129898967596 0.06680129898967596 0.06680129898967596 0.06680129898967596 0.1239611155463063 0.1239611155463063 
0.1239611155463063 0.1239611155463063 0.162586839038188 0.162586839038188 0.162586839038188 0.162586839038188 0.190289284645426 0.190289284645426 0.190289284645426 
0.190289284645426 0.210753028534233 0.210753028534233 0.210753028534233 0.210753028534233 0.2262345298166512 0.2262345298166512 0.2262345298166512 0.2262345298166512 
0.2382314935909172 0.2382314935909172 0.2382314935909172 0.2382314935909172 0.2477778219275187 0.2477778219275187 0.2477778219275187 0.2477778219275187 0.2556007212317714 
0.2556007212317714 0.2556007212317714 0.2556007212317714 0.2622149432984938 0.2622149432984938 0.2622149432984938 0.2622149432984938 0.2679843917170177 0.2679843917170177 
0.2679843917170177 0.2679843917170177 0.2731647999024951 0.2731647999024951 0.2731647999024951 0.2731647999024951 0.2779343093619475 0.2779343093619475 0.2779343093619475 
0.2779343093619475 0.2824157144255454 0.2824157144255454 0.2824157144255454 0.2824157144255454 0.2866926815065949 0.2866926815065949 0.2866926815065949 0.2866926815065949 
0.2908215059264007 0.2908215059264007 0.2908215059264007 0.2908215059264007 0.2948395923416782 0.2948395923416782 0.2948395923416782 0.2948395923416782 0.2987714173478972 
0.2987714173478972 0.2987714173478972 0.2987714173478972 0.3026326829726913 0.3026326829726913 0.3026326829726913 0.3026326829726913 0.30643324508281 0.30643324508281 
0.30643324508281 0.30643324508281 0.3101791029874504 0.3101791029874504 0.3101791029874504 0.3101791029874504 0.3138737366493832 0.3138737366493832 0.3138737366493832 
0.3138737366493832 0.3175189967787533 0.3175189967787533 0.3175189967787533 0.3175189967787533 0.3211156918790378 0.3211156918790378 0.3211156918790378 0.3211156918790378 
0.324663972152426 0.324663972152426 0.324663972152426 0.324663972152426 0.3281635786877858 0.3281635786877858 0.3281635786877858 0.3281635786877858 0.331614004216182 