Title = Result/Post/Linear_Advection_2D/FVM/MLP_u1_Least_Square/Sine_Wave_2D/Quad100/
FileType = Solution
Variables = q
Zone T = Result/Post/Linear_Advection_2D/FVM/MLP_u1_Least_Square/Sine_Wave_2D/Quad100/
ZoneType = FETriangle
Nodes = 40000
Elements = 20000
DataPacking = Block
StrandID = 7
SolutionTime = 0.6000000000000001
-0.5163825923884477 -0.5163825923884477 -0.5163825923884477 -0.5163825923884477 -0.4844946569647355 -0.4844946569647355 -0.4844946569647355 -0.4844946569647355 -0.4360350614036961 -0.4360350614036961 
-0.4360350614036961 -0.4360350614036961 -0.3824631019537424 -0.3824631019537424 -0.3824631019537424 -0.3824631019537424 -0.326596315570521 -0.326596315570521 -0.326596315570521 
-0.326596315570521 -0.2692595523290745 -0.2692595523290745 -0.2692595523290745 -0.2692595523290745 -0.2108185686478854 -0.2108185686478854 -0.2108185686478854 -0.2108185686478854 
-0.1515355082106105 -0.1515355082106105 -0.1515355082106105 -0.1515355082106105 -0.09165071821127276 -0.09165071821127276 -0.09165071821127276 -0.09165071821127276 -0.03140180304957624 
-0.03140180304957624 -0.03140180304957624 -0.03140180304957624 0.02897221628880143 0.02897221628880143 0.02897221628880143 0.02897221628880143 0.0892313207136575 0.0892313207136575 
0.0892313207136575 0.0892313207136575 0.1491365247382406 0.1491365247382406 0.1491365247382406 0.1491365247382406 0.2084515910976728 0.2084515910976728 0.2084515910976728 
0.2084515910976728 0.2669435542249552 0.2669435542249552 0.2669435542249552 0.2669435542249552 0.3243825918234338 0.3243825918234338 0.3243825918234338 0.3243825918234338 
0.3805422815022364 0.3805422815022364 0.3805422815022364 0.3805422815022364 0.435200633738809 0.435200633738809 0.435200633738809 0.435200633738809 0.488141486542327 
0.488141486542327 0.488141486542327 0.488141486542327 0.5391556993439468 0.5391556993439468 0.5391556993439468 0.5391556993439468 0.5880419737752418 0.5880419737752418 
0.5880419737752418 0.5880419737752418 0.634607481496123 0.634607481496123 0.634607481496123 0.634607481496123 0.6786685083166073 0.6786685083166073 0.6786685083166073 
0.6786685083166073 0.7200511677293494 0.7200511677293494 0.7200511677293494 0.7200511677293494 0.7585921237208624 0.7585921237208624 0.7585921237208624 0.7585921237208624 
0.7941392610166216 0.7941392610166216 0.7941392610166216 0.7941392610166216 0.826552288762712 0.826552288762712 0.826552288762712 0.826552288762712 0.8557032925342025 
0.8557032925342025 0.8557032925342025 0.8557032925342025 0.881477239504741 0.881477239504741 0.881477239504741 0.881477239504741 0.9037724237019562 0.9037724237019562 
0.9037724237019562 0.9037724237019562 0.9225008625800477 0.9225008625800477 0.9225008625800477 0.9225008625800477 0.9375886323004474 0.9375886323004474 0.9375886323004474 
0.9375886323004474 0.9489762174525233 0.9489762174525233 0.9489762174525233 0.9489762174525233 0.9566186311167415 0.9566186311167415 0.9566186311167415 0.9566186311167415 
0.9604848285594014 0.9604848285594014 0.9604848285594014 0.9604848285594014 0.9605602790152555 0.9605602790152555 0.9605602790152555 0.9605602790152555 0.9568466812494268 
0.9568466812494268 0.9568466812494268 0.9568466812494268 0.9493562098993992 0.9493562098993992 0.9493562098993992 0.9493562098993992 0.938118923534206 0.938118923534206 
0.938118923534206 0.938118923534206 0.9231792208923851 0.9231792208923851 0.9231792208923851 0.9231792208923851 0.9045960398007087 0.9045960398007087 0.9045960398007087 
0.9045960398007087 0.8824426786061804 0.8824426786061804 0.8824426786061804 0.8824426786061804 0.856806670582178 0.856806670582178 0.856806670582178 0.856806670582178 
0.8277894874113201 0.8277894874113201 0.8277894874113201 0.8277894874113201 0.7955060863053071 0.7955060863053071 0.7955060863053071 0.7955060863053071 0.7600840033536094 
0.7600840033536094 0.7600840033536094 0.7600840033536094 0.7216619245361567 0.7216619245361567 0.7216619245361567 0.7216619245361567 0.6803881665590135 0.6803881665590135 
0.6803881665590135 0.6803881665590135 0.6364204308560685 0.6364204308560685 0.6364204308560685 0.6364204308560685 0.5899288967022466 0.5899288967022466 0.5899288967022466 
0.5899288967022466 0.5411042604718566 0.5411042604718566 0.5411042604718566 0.5411042604718566 0.4901698744775967 0.4901698744775967 0.4901698744775967 0.4901698744775967 
0.4373929357013109 0.4373929357013109 0.4373929357013109 0.4373929357013109 0.3830856717597973 0.3830856717597973 0.3830856717597973 0.3830856717597973 0.327586904443856 
0.327586904443856 0.327586904443856 0.327586904443856 0.271219982388158 0.271219982388158 0.271219982388158 0.271219982388158 0.2142346893249329 0.2142346893249329 
0.2142346893249329 0.2142346893249329 0.1567538619423354 0.1567538619423354 0.1567538619423354 0.1567538619423354 0.09875248724290486 0.09875248724290486 0.09875248724290486 
0.09875248724290486 0.04009124719910472 0.04009124719910472 0.04009124719910472 0.04009124719910472 -0.01939323748184616 -0.01939323748184616 -0.01939323748184616 -0.01939323748184616 
-0.07976578512097762 -0.07976578512097762 -0.07976578512097762 -0.07976578512097762 -0.1408824782824388 -0.1408824782824388 -0.1408824782824388 -0.1408824782824388 -0.2023399973203107 
-0.2023399973203107 -0.2023399973203107 -0.2023399973203107 -0.263511405547214 -0.263511405547214 -0.263511405547214 -0.263511405547214 -0.3236604452510877 -0.3236604452510877 
-0.3236604452510877 -0.3236604452510877 -0.3820929507328087 -0.3820929507328087 -0.3820929507328087 -0.3820929507328087 -0.4382883727958252 -0.4382883727958252 -0.4382883727958252 
-0.4382883727958252 -0.4919642950735641 -0.4919642950735641 -0.4919642950735641 -0.4919642950735641 -0.5430569214009124 -0.5430569214009124 -0.5430569214009124 -0.5430569214009124 
-0.5916356797236153 -0.5916356797236153 -0.5916356797236153 -0.5916356797236153 -0.6377937128927255 -0.6377937128927255 -0.6377937128927255 -0.6377937128927255 -0.681558693751002 
-0.681558693751002 -0.681558693751002 -0.681558693751002 -0.7228519098613121 -0.7228519098613121 -0.7228519098613121 -0.7228519098613121 -0.7614985448362053 -0.7614985448362053 
-0.7614985448362053 -0.7614985448362053 -0.7972713306148955 -0.7972713306148955 -0.7972713306148955 -0.7972713306148955 -0.8299415052081234 -0.8299415052081234 -0.8299415052081234 
-0.8299415052081234 -0.8593158614018904 -0.8593158614018904 -0.8593158614018904 -0.8593158614018904 -0.8852509684561245 -0.8852509684561245 -0.8852509684561245 -0.8852509684561245 
-0.9076478217516695 -0.9076478217516695 -0.9076478217516695 -0.9076478217516695 -0.9264369203243723 -0.9264369203243723 -0.9264369203243723 -0.9264369203243723 -0.9415638291750545 
-0.9415638291750545 -0.9415638291750545 -0.9415638291750545 -0.9529811009032618 -0.9529811009032618 -0.9529811009032618 -0.9529811009032618 -0.9606470019958209 -0.9606470019958209 
-0.9606470019958209 -0.9606470019958209 -0.9645279395628094 -0.9645279395628094 -0.9645279395628094 -0.9645279395628094 -0.964605080254596 -0.964605080254596 -0.964605080254596 
-0.964605080254596 -0.960876882829528 -0.960876882829528 -0.960876882829528 -0.960876882829528 -0.9533542394536534 -0.9533542394536534 -0.9533542394536534 -0.9533542394536534 
-0.9420675128489648 -0.9420675128489648 -0.9420675128489648 -0.9420675128489648 -0.9270620535568037 -0.9270620535568037 -0.9270620535568037 -0.9270620535568037 -0.9083979022101489 
-0.9083979022101489 -0.9083979022101489 -0.9083979022101489 -0.8861484959309069 -0.8861484959309069 -0.8861484959309069 -0.8861484959309069 -0.8604039001685272 -0.8604039001685272 
-0.8604039001685272 -0.8604039001685272 -0.8312563330694542 -0.8312563330694542 -0.8312563330694542 -0.8312563330694542 -0.7988595946651427 -0.7988595946651427 -0.7988595946651427 
-0.7988595946651427 -0.7631791819433704 -0.7631791819433704 -0.7631791819433704 -0.7631791819433704 -0.7250320508054889 -0.7250320508054889 -0.7250320508054889 -0.7250320508054889 
-0.6817585343241965 -0.6817585343241965 -0.6817585343241965 -0.6817585343241965 -0.6451841309253425 -0.6451841309253425 -0.6451841309253425 -0.6451841309253425 -0.5672946156086809 
-0.5672946156086809 -0.5672946156086809 -0.5672946156086809 -0.5208888420745066 -0.5208888420745066 -0.5208888420745066 -0.5208888420745066 -0.4887525395549844 -0.4887525395549844 
-0.4887525395549844 -0.4887525395549844 -0.4398993895824631 -0.4398993895824631 -0.4398993895824631 -0.4398993895824631 -0.3858599781054061 -0.3858599781054061 -0.3858599781054061 
-0.3858599781054061 -0.329497223484966 -0.329497223484966 -0.329497223484966 -0.329497223484966 -0.2716499971242957 -0.2716499971242957 -0.2716499971242957 -0.2716499971242957 
-0.2126893824660091 -0.2126893824660091 -0.2126893824660091 -0.2126893824660091 -0.1528800992318981 -0.1528800992318981 -0.1528800992318981 -0.1528800992318981 -0.09246436207502595 
-0.09246436207502595 -0.09246436207502595 -0.09246436207502595 -0.03168160189524875 -0.03168160189524875 -0.03168160189524875 -0.03168160189524875 0.02922720206005624 0.02922720206005624 
0.02922720206005624 0.02922720206005624 0.09001996293260357 0.09001996293260357 0.09001996293260357 0.09001996293260357 0.1504555939538515 0.1504555939538515 0.1504555939538515 
0.1504555939538515 0.2102957785664232 0.2102957785664232 0.2102957785664232 0.2102957785664232 0.269305509038659 0.269305509038659 0.269305509038659 0.269305509038659 
0.3272529511583401 0.3272529511583401 0.3272529511583401 0.3272529511583401 0.3839096968063014 0.3839096968063014 0.3839096968063014 0.3839096968063014 0.4390518049295428 
0.4390518049295428 0.4390518049295428 0.4390518049295428 0.4924612103783641 0.4924612103783641 0.4924612103783641 0.4924612103783641 0.5439269296280511 0.5439269296280511 
0.5439269296280511 0.5439269296280511 0.5932458885104034 0.5932458885104034 0.5932458885104034 0.5932458885104034 0.6402235548035511 0.6402235548035511 0.6402235548035511 
0.6402235548035511 0.6846745880581461 0.6846745880581461 0.6846745880581461 0.6846745880581461 0.7264235604294533 0.7264235604294533 0.7264235604294533 0.7264235604294533 
0.7653056869812358 0.7653056869812358 0.7653056869812358 0.7653056869812358 0.8011675023279766 0.8011675023279766 0.8011675023279766 0.8011675023279766 0.8338674710375856 
0.8338674710375856 0.8338674710375856 0.8338674710375856 0.8632765468798845 0.8632765468798845 0.8632765468798845 0.8632765468798845 0.8892786832990508 0.8892786832990508 
0.8892786832990508 0.8892786832990508 0.9117712775561782 0.9117712775561782 0.9117712775561782 0.9117712775561782 0.9306655679204052 0.9306655679204052 0.9306655679204052 
0.9306655679204052 0.9458869751032235 0.9458869751032235 0.9458869751032235 0.9458869751032235 0.9573753913911337 0.9573753913911337 0.9573753913911337 0.9573753913911337 
0.965085245527539 0.965085245527539 0.965085245527539 0.965085245527539 0.9689857691294007 0.9689857691294007 0.9689857691294007 0.9689857691294007 0.9690623064972118 
0.9690623064972118 0.9690623064972118 0.9690623064972118 0.9653152769753355 0.9653152769753355 0.9653152769753355 0.9653152769753355 0.9577588362509895 0.9577588362509895 
0.9577588362509895 0.9577588362509895 0.9464223487535099 0.9464223487535099 0.9464223487535099 0.9464223487535099 0.9313505861354847 0.9313505861354847 0.9313505861354847 
0.9313505861354847 0.9126030022613475 0.9126030022613475 0.9126030022613475 0.9126030022613475 0.890253594754749 0.890253594754749 0.890253594754749 0.890253594754749 
0.8643906931468407 0.8643906931468407 0.8643906931468407 0.8643906931468407 0.8351166883903255 0.8351166883903255 0.8351166883903255 0.8351166883903255 0.8025475641394357 
0.8025475641394357 0.8025475641394357 0.8025475641394357 0.7668119885361647 0.7668119885361647 0.7668119885361647 0.7668119885361647 0.7280498767344384 0.7280498767344384 
0.7280498767344384 0.7280498767344384 0.6864108632766437 0.6864108632766437 0.6864108632766437 0.6864108632766437 0.6420540521022592 0.6420540521022592 0.6420540521022592 
0.6420540521022592 0.5951511279109908 0.5951511279109908 0.5951511279109908 0.5951511279109908 0.5458944534725512 0.5458944534725512 0.5458944534725512 0.5458944534725512 
0.4945093079880651 0.4945093079880651 0.4945093079880651 0.4945093079880651 0.441265183547025 0.441265183547025 0.441265183547025 0.441265183547025 0.3864770133482371 
0.3864770133482371 0.3864770133482371 0.3864770133482371 0.33048661962861 0.33048661962861 0.33048661962861 0.33048661962861 0.2736203134883552 0.2736203134883552 
0.2736203134883552 0.2736203134883552 0.2161302887616929 0.2161302887616929 0.2161302887616929 0.2161302887616929 0.1581407075226369 0.1581407075226369 0.1581407075226369 
0.1581407075226369 0.09962650392877544 0.09962650392877544 0.09962650392877544 0.09962650392877544 0.04044711503293471 0.04044711503293471 0.04044711503293471 0.04044711503293471 
-0.01956252667068996 -0.01956252667068996 -0.01956252667068996 -0.01956252667068996 -0.08046823063347987 -0.08046823063347987 -0.08046823063347987 -0.08046823063347987 -0.142125244659357 
-0.142125244659357 -0.142125244659357 -0.142125244659357 -0.2041269509169859 -0.2041269509169859 -0.2041269509169859 -0.2041269509169859 -0.2658408351333561 -0.2658408351333561 
-0.2658408351333561 -0.2658408351333561 -0.326523789233972 -0.326523789233972 -0.326523789233972 -0.326523789233972 -0.3854749964658345 -0.3854749964658345 -0.3854749964658345 
-0.3854749964658345 -0.4421688280259187 -0.4421688280259187 -0.4421688280259187 -0.4421688280259187 -0.4963201153174263 -0.4963201153174263 -0.4963201153174263 -0.4963201153174263 
-0.5478645419580324 -0.5478645419580324 -0.5478645419580324 -0.5478645419580324 -0.5968724352817367 -0.5968724352817367 -0.5968724352817367 -0.5968724352817367 -0.6434381382414023 
-0.6434381382414023 -0.6434381382414023 -0.6434381382414023 -0.6875898727863446 -0.6875898727863446 -0.6875898727863446 -0.6875898727863446 -0.7292483616341459 -0.7292483616341459 
-0.7292483616341459 -0.7292483616341459 -0.7682371933524064 -0.7682371933524064 -0.7682371933524064 -0.7682371933524064 -0.8043269293609283 -0.8043269293609283 -0.8043269293609283 
-0.8043269293609283 -0.8372866094187703 -0.8372866094187703 -0.8372866094187703 -0.8372866094187703 -0.8669212039265062 -0.8669212039265062 -0.8669212039265062 -0.8669212039265062 
-0.8930859876988837 -0.8930859876988837 -0.8930859876988837 -0.8930859876988837 -0.9156811183633584 -0.9156811183633584 -0.9156811183633584 -0.9156811183633584 -0.9346365389493522 
-0.9346365389493522 -0.9346365389493522 -0.9346365389493522 -0.949897379741135 -0.949897379741135 -0.949897379741135 -0.949897379741135 -0.9614157274673296 -0.9614157274673296 
-0.9614157274673296 -0.9614157274673296 -0.9691492866226381 -0.9691492866226381 -0.9691492866226381 -0.9691492866226381 -0.9730646993369697 -0.9730646993369697 -0.9730646993369697 
-0.9730646993369697 -0.9731429538527678 -0.9731429538527678 -0.9731429538527678 -0.9731429538527678 -0.969381184234103 -0.969381184234103 -0.969381184234103 -0.969381184234103 
-0.9617922633466238 -0.9617922633466238 -0.9617922633466238 -0.9617922633466238 -0.9504058660842867 -0.9504058660842867 -0.9504058660842867 -0.9504058660842867 -0.9352677349623921 
-0.9352677349623921 -0.9352677349623921 -0.9352677349623921 -0.9164384452718576 -0.9164384452718576 -0.9164384452718576 -0.9164384452718576 -0.8939921355323213 -0.8939921355323213 
-0.8939921355323213 -0.8939921355323213 -0.8680197023113323 -0.8680197023113323 -0.8680197023113323 -0.8680197023113323 -0.8386141442168747 -0.8386141442168747 -0.8386141442168747 
-0.8386141442168747 -0.8059308403959029 -0.8059308403959029 -0.8059308403959029 -0.8059308403959029 -0.7699341433018558 -0.7699341433018558 -0.7699341433018558 -0.7699341433018558 
-0.7314513404175533 -0.7314513404175533 -0.7314513404175533 -0.7314513404175533 -0.6877889162406048 -0.6877889162406048 -0.6877889162406048 -0.6877889162406048 -0.6508968486467412 
-0.6508968486467412 -0.6508968486467412 -0.6508968486467412 -0.5723784371812044 -0.5723784371812044 -0.5723784371812044 -0.5723784371812044 -0.526265665695562 -0.526265665695562 
-0.526265665695562 -0.526265665695562 -0.4937563265354779 -0.4937563265354779 -0.4937563265354779 -0.4937563265354779 -0.4444013039479547 -0.4444013039479547 -0.4444013039479547 
-0.4444013039479547 -0.3898170157293414 -0.3898170157293414 -0.3898170157293414 -0.3898170157293414 -0.332882430424153 -0.332882430424153 -0.332882430424153 -0.332882430424153 
-0.2744446043379409 -0.2744446043379409 -0.2744446043379409 -0.2744446043379409 -0.2148797397485378 -0.2148797397485378 -0.2148797397485378 -0.2148797397485378 -0.1544563573273397 
-0.1544563573273397 -0.1544563573273397 -0.1544563573273397 -0.09341972267178524 -0.09341972267178524 -0.09341972267178524 -0.09341972267178524 -0.03201196792323106 -0.03201196792323106 
-0.03201196792323106 -0.03201196792323106 0.02952332217651922 0.02952332217651922 0.02952332217651922 0.02952332217651922 0.09094146178934762 0.09094146178934762 0.09094146178934762 
0.09094146178934762 0.1519987897910315 0.1519987897910315 0.1519987897910315 0.1519987897910315 0.2124544775833228 0.2124544775833228 0.2124544775833228 0.2124544775833228 
0.2720710746894245 0.2720710746894245 0.2720710746894245 0.2720710746894245 0.3306143568692866 0.3306143568692866 0.3306143568692866 0.3306143568692866 0.3878535681931783 
0.3878535681931783 0.3878535681931783 0.3878535681931783 0.4435624709263242 0.4435624709263242 0.4435624709263242 0.4435624709263242 0.4975207730691102 0.4975207730691102 
0.4975207730691102 0.4975207730691102 0.5495153476400136 0.5495153476400136 0.5495153476400136 0.5495153476400136 0.5993410639569505 0.5993410639569505 0.5993410639569505 
0.5993410639569505 0.6468014190578633 0.6468014190578633 0.6468014190578633 0.6468014190578633 0.6917091885960678 0.6917091885960678 0.6917091885960678 0.6917091885960678 
0.7338871534078002 0.7338871534078002 0.7338871534078002 0.7338871534078002 0.7731688384135191 0.7731688384135191 0.7731688384135191 0.7731688384135191 0.8093991985358071 
0.8093991985358071 0.8093991985358071 0.8093991985358071 0.8424352396988781 0.8424352396988781 0.8424352396988781 0.8424352396988781 0.8721465881023032 0.8721465881023032 
0.8721465881023032 0.8721465881023032 0.8984160071788017 0.8984160071788017 0.8984160071788017 0.8984160071788017 0.921139838119081 0.921139838119081 0.921139838119081 
0.921139838119081 0.940228394921798 0.940228394921798 0.940228394921798 0.940228394921798 0.9556062938961563 0.9556062938961563 0.9556062938961563 0.9556062938961563 
0.9672127447574536 0.9672127447574536 0.9672127447574536 0.9672127447574536 0.9750016805552464 0.9750016805552464 0.9750016805552464 0.9750016805552464 0.9789422151122611 
0.9789422151122611 0.9789422151122611 0.9789422151122611 0.9790195504719079 0.9790195504719079 0.9790195504719079 0.9790195504719079 0.9752340458307247 0.9752340458307247 
0.9752340458307247 0.9752340458307247 0.967600239610316 0.967600239610316 0.967600239610316 0.967600239610316 0.9561476747624035 0.9561476747624035 0.9561476747624035 
0.9561476747624035 0.9409213179557457 0.9409213179557457 0.9409213179557457 0.9409213179557457 0.9219812362957511 0.9219812362957511 0.9219812362957511 0.9219812362957511 
0.8994022221579604 0.8994022221579604 0.8994022221579604 0.8994022221579604 0.8732735631176758 0.8732735631176758 0.8732735631176758 0.8732735631176758 0.8436987408867226 
0.8436987408867226 0.8436987408867226 0.8436987408867226 0.8107949515319537 0.8107949515319537 0.8107949515319537 0.8107949515319537 0.7746921916885905 0.7746921916885905 
0.7746921916885905 0.7746921916885905 0.7355318149514677 0.7355318149514677 0.7355318149514677 0.7355318149514677 0.6934649989681869 0.6934649989681869 0.6934649989681869 
0.6934649989681869 0.6486524930661507 0.6486524930661507 0.6486524930661507 0.6486524930661507 0.6012677515065885 0.6012677515065885 0.6012677515065885 0.6012677515065885 
0.5515050965712589 0.5515050965712589 0.5515050965712589 0.5515050965712589 0.4995920688430027 0.4995920688430027 0.4995920688430027 0.4995920688430027 0.4458008435970696 
0.4458008435970696 0.4458008435970696 0.4458008435970696 0.3904495034271825 0.3904495034271825 0.3904495034271825 0.3904495034271825 0.3338833507946857 0.3338833507946857 
0.3338833507946857 0.3338833507946857 0.2764321263394517 0.2764321263394517 0.2764321263394517 0.2764321263394517 0.2183508165328221 0.2183508165328221 0.2183508165328221 
0.2183508165328221 0.1597651343462504 0.1597651343462504 0.1597651343462504 0.1597651343462504 0.1006499911334865 0.1006499911334865 0.1006499911334865 0.1006499911334865 
0.04086344171023601 0.04086344171023601 0.04086344171023601 0.04086344171023601 -0.01976146815984382 -0.01976146815984382 -0.01976146815984382 -0.01976146815984382 -0.0812916373474516 
-0.0812916373474516 -0.0812916373474516 -0.0812916373474516 -0.1435813151562882 -0.1435813151562882 -0.1435813151562882 -0.1435813151562882 -0.2062200644310156 -0.2062200644310156 
-0.2062200644310156 -0.2062200644310156 -0.2685689339906767 -0.2685689339906767 -0.2685689339906767 -0.2685689339906767 -0.3298769056055524 -0.3298769056055524 -0.3298769056055524 
-0.3298769056055524 -0.3894354610512176 -0.3894354610512176 -0.3894354610512176 -0.3894354610512176 -0.4467130547069647 -0.4467130547069647 -0.4467130547069647 -0.4467130547069647 
-0.5014212643129856 -0.5014212643129856 -0.5014212643129856 -0.5014212643129856 -0.5534950899481998 -0.5534950899481998 -0.5534950899481998 -0.5534950899481998 -0.6030058276743467 
-0.6030058276743467 -0.6030058276743467 -0.6030058276743467 -0.6500491634231289 -0.6500491634231289 -0.6500491634231289 -0.6500491634231289 -0.6946539395011234 -0.6946539395011234 
-0.6946539395011234 -0.6946539395011234 -0.7367402324595156 -0.7367402324595156 -0.7367402324595156 -0.7367402324595156 -0.776129799997896 -0.776129799997896 -0.776129799997896 
-0.776129799997896 -0.8125907004086896 -0.8125907004086896 -0.8125907004086896 -0.8125907004086896 -0.8458894253192619 -0.8458894253192619 -0.8458894253192619 -0.8458894253192619 
-0.875828819534922 -0.875828819534922 -0.875828819534922 -0.875828819534922 -0.9022626359321442 -0.9022626359321442 -0.9022626359321442 -0.9022626359321442 -0.9250900355364094 
-0.9250900355364094 -0.9250900355364094 -0.9250900355364094 -0.9442402894122007 -0.9442402894122007 -0.9442402894122007 -0.9442402894122007 -0.9596579770273191 -0.9596579770273191 
-0.9596579770273191 -0.9596579770273191 -0.9712946499680563 -0.9712946499680563 -0.9712946499680563 -0.9712946499680563 -0.9791075447498924 -0.9791075447498924 -0.9791075447498924 
-0.9791075447498924 -0.9830631389689081 -0.9830631389689081 -0.9830631389689081 -0.9830631389689081 -0.983142213842415 -0.983142213842415 -0.983142213842415 -0.983142213842415 
-0.9793417989796533 -0.9793417989796533 -0.9793417989796533 -0.9793417989796533 -0.971675139460588 -0.971675139460588 -0.971675139460588 -0.971675139460588 -0.9601721024999541 
-0.9601721024999541 -0.9601721024999541 -0.9601721024999541 -0.9448786484657018 -0.9448786484657018 -0.9448786484657018 -0.9448786484657018 -0.9258559892354246 -0.9258559892354246 
-0.9258559892354246 -0.9258559892354246 -0.9031790653347015 -0.9031790653347015 -0.9031790653347015 -0.9031790653347015 -0.8769397595822652 -0.8769397595822652 -0.8769397595822652 
-0.8769397595822652 -0.8472320540100294 -0.8472320540100294 -0.8472320540100294 -0.8472320540100294 -0.8142129569954789 -0.8142129569954789 -0.8142129569954789 -0.8142129569954789 
-0.7778464129916417 -0.7778464129916417 -0.7778464129916417 -0.7778464129916417 -0.7389681393771126 -0.7389681393771126 -0.7389681393771126 -0.7389681393771126 -0.6948583211795281 
-0.6948583211795281 -0.6948583211795281 -0.6948583211795281 -0.6575785200974478 -0.6575785200974478 -0.6575785200974478 -0.6575785200974478 -0.5782729808657051 -0.5782729808657051 
-0.5782729808657051 -0.5782729808657051 -0.5302689539237118 -0.5302689539237118 -0.5302689539237118 -0.5302689539237118 -0.4975001417646773 -0.4975001417646773 -0.4975001417646773 
-0.4975001417646773 -0.4477578146032298 -0.4477578146032298 -0.4477578146032298 -0.4477578146032298 -0.3927566137071888 -0.3927566137071888 -0.3927566137071888 -0.3927566137071888 
-0.3353926017971239 -0.3353926017971239 -0.3353926017971239 -0.3353926017971239 -0.2765155716941406 -0.2765155716941406 -0.2765155716941406 -0.2765155716941406 -0.2165030470998726 
-0.2165030470998726 -0.2165030470998726 -0.2165030470998726 -0.155625061220328 -0.155625061220328 -0.155625061220328 -0.155625061220328 -0.09412859732722961 -0.09412859732722961 
-0.09412859732722961 -0.09412859732722961 -0.03225759783218773 -0.03225759783218773 -0.03225759783218773 -0.03225759783218773 0.02974247598000791 0.02974247598000791 0.02974247598000791 
0.02974247598000791 0.09162501093573196 0.09162501093573196 0.09162501093573196 0.09162501093573196 0.1531444062848668 0.1531444062848668 0.1531444062848668 0.1531444062848668 
0.2140579170356873 0.2140579170356873 0.2140579170356873 0.2140579170356873 0.2741262064560066 0.2741262064560066 0.2741262064560066 0.2741262064560066 0.3331131835095905 
0.3331131835095905 0.3331131835095905 0.3331131835095905 0.3907862450366962 0.3907862450366962 0.3907862450366962 0.3907862450366962 0.4469173479821947 0.4469173479821947 
0.4469173479821947 0.4469173479821947 0.5012844682956608 0.5012844682956608 0.5012844682956608 0.5012844682956608 0.5536728410958236 0.5536728410958236 0.5536728410958236 
0.5536728410958236 0.6038757948463104 0.6038757948463104 0.6038757948463104 0.6038757948463104 0.6516953739140481 0.6516953739140481 0.6516953739140481 0.6516953739140481 
0.696942979223232 0.696942979223232 0.696942979223232 0.696942979223232 0.7394400892090638 0.7394400892090638 0.7394400892090638 0.7394400892090638 0.7790189982811357 
0.7790189982811357 0.7790189982811357 0.7790189982811357 0.8155235061815771 0.8155235061815771 0.8155235061815771 0.8155235061815771 0.8488095463210874 0.8488095463210874 
0.8488095463210874 0.8488095463210874 0.8787457631763402 0.8787457631763402 0.8787457631763402 0.8787457631763402 0.9052140345148303 0.9052140345148303 0.9052140345148303 
0.9052140345148303 0.9281099075780711 0.9281099075780711 0.9281099075780711 0.9281099075780711 0.9473429930412799 0.9473429930412799 0.9473429930412799 0.9473429930412799 
0.9628373017133998 0.9628373017133998 0.9628373017133998 0.9628373017133998 0.97453160439016 0.97453160439016 0.97453160439016 0.97453160439016 0.982379362470284 
0.982379362470284 0.982379362470284 0.982379362470284 0.9863492855393844 0.9863492855393844 0.9863492855393844 0.9863492855393844 0.9864270502609546 0.9864270502609546 
0.9864270502609546 0.9864270502609546 0.9826132155800904 0.9826132155800904 0.9826132155800904 0.9826132155800904 0.9749221748066308 0.9749221748066308 0.9749221748066308 
0.9749221748066308 0.9633833706084849 0.9633833706084849 0.9633833706084849 0.9633833706084849 0.9480420865120643 0.9480420865120643 0.9480420865120643 0.9480420865120643 
0.9289588631002581 0.9289588631002581 0.9289588631002581 0.9289588631002581 0.9062090528886776 0.9062090528886776 0.9062090528886776 0.9062090528886776 0.8798826760387393 
0.8798826760387393 0.8798826760387393 0.8798826760387393 0.8500840383260566 0.8500840383260566 0.8500840383260566 0.8500840383260566 0.8169312523220201 0.8169312523220201 
0.8169312523220201 0.8169312523220201 0.7805553065158791 0.7805553065158791 0.7805553065158791 0.7805553065158791 0.7410986246240809 0.7410986246240809 0.7410986246240809 
0.7410986246240809 0.6987135336897896 0.6987135336897896 0.6987135336897896 0.6987135336897896 0.6535620133106754 0.6535620133106754 0.6535620133106754 0.6535620133106754 
0.6058188433236827 0.6058188433236827 0.6058188433236827 0.6058188433236827 0.5556798096606144 0.5556798096606144 0.5556798096606144 0.5556798096606144 0.5033741295736992 
0.5033741295736992 0.5033741295736992 0.5033741295736992 0.449175951210737 0.449175951210737 0.449175951210737 0.449175951210737 0.3934056608753168 0.3934056608753168 
0.3934056608753168 0.3934056608753168 0.3364111073895391 0.3364111073895391 0.3364111073895391 0.3364111073895391 0.2785245577380482 0.2785245577380482 0.2785245577380482 
0.2785245577380482 0.220003089349668 0.220003089349668 0.220003089349668 0.220003089349668 0.1609736286595388 0.1609736286595388 0.1609736286595388 0.1609736286595388 
0.1014111621365515 0.1014111621365515 0.1014111621365515 0.1014111621365515 0.04117280665732499 0.04117280665732499 0.04117280665732499 0.04117280665732499 -0.0199097476224709 
-0.0199097476224709 -0.0199097476224709 -0.0199097476224709 -0.08190423143191375 -0.08190423143191375 -0.08190423143191375 -0.08190423143191375 -0.1446642397349949 -0.1446642397349949 
-0.1446642397349949 -0.1446642397349949 -0.2077766161988048 -0.2077766161988048 -0.2077766161988048 -0.2077766161988048 -0.2705977269295177 -0.2705977269295177 -0.2705977269295177 
-0.2705977269295177 -0.3323707161456991 -0.3323707161456991 -0.3323707161456991 -0.3323707161456991 -0.392381309335292 -0.392381309335292 -0.392381309335292 -0.392381309335292 
-0.450093476405878 -0.450093476405878 -0.450093476405878 -0.450093476405878 -0.5052162763076611 -0.5052162763076611 -0.5052162763076611 -0.5052162763076611 -0.5576841282759399 
-0.5576841282759399 -0.5576841282759399 -0.5576841282759399 -0.6075690261473081 -0.6075690261473081 -0.6075690261473081 -0.6075690261473081 -0.65496767935256 -0.65496767935256 
-0.65496767935256 -0.65496767935256 -0.6999094416099677 -0.6999094416099677 -0.6999094416099677 -0.6999094416099677 -0.7423139567980768 -0.7423139567980768 -0.7423139567980768 
-0.7423139567980768 -0.7820016475051182 -0.7820016475051182 -0.7820016475051182 -0.7820016475051182 -0.8187387113430575 -0.8187387113430575 -0.8187387113430575 -0.8187387113430575 
-0.852289728823645 -0.852289728823645 -0.852289728823645 -0.852289728823645 -0.8824559439110341 -0.8824559439110341 -0.8824559439110341 -0.8824559439110341 -0.9090899626379483 