Title = Result/Post/Linear_Advection_2D/FVM/MLP_u1_Least_Square/Sine_Wave_2D/Quad100/
FileType = Solution
Variables = q
Zone T = Result/Post/Linear_Advection_2D/FVM/MLP_u1_Least_Square/Sine_Wave_2D/Quad100/
ZoneType = FETriangle
Nodes = 40000
Elements = 20000
DataPacking = Block
StrandID = 4
SolutionTime = 0.3
0.7416077079089458 0.7416077079089458 0.7416077079089458 0.7416077079089458 0.7480811483781622 0.7480811483781622 0.7480811483781622 0.7480811483781622 0.7557646364908851 0.7557646364908851 
0.7557646364908851 0.7557646364908851 0.7614923325645573 0.7614923325645573 0.7614923325645573 0.7614923325645573 0.7644681562066495 0.7644681562066495 0.7644681562066495 
0.7644681562066495 0.7644871026494842 0.7644871026494842 0.7644871026494842 0.7644871026494842 0.7615030525448537 0.7615030525448537 0.7615030525448537 0.7615030525448537 
0.7555142576489351 0.7555142576489351 0.7555142576489351 0.7555142576489351 0.7465429288687668 0.7465429288687668 0.7465429288687668 0.7465429288687668 0.7346246771336357 
0.7346246771336357 0.7346246771336357 0.7346246771336357 0.7198069018004729 0.7198069018004729 0.7198069018004729 0.7198069018004729 0.7021482960172404 0.7021482960172404 
0.7021482960172404 0.7021482960172404 0.6817186984903403 0.6817186984903403 0.6817186984903403 0.6817186984903403 0.6585987521011059 0.6585987521011059 0.6585987521011059 
0.6585987521011059 0.6328795803483782 0.6328795803483782 0.6328795803483782 0.6328795803483782 0.6046625936546934 0.6046625936546934 0.6046625936546934 0.6046625936546934 
0.5740595387369815 0.5740595387369815 0.5740595387369815 0.5740595387369815 0.54119223433523 0.54119223433523 0.54119223433523 0.54119223433523 0.5061907460073477 
0.5061907460073477 0.5061907460073477 0.5061907460073477 0.4691895879160395 0.4691895879160395 0.4691895879160395 0.4691895879160395 0.430325325612698 0.430325325612698 
0.430325325612698 0.430325325612698 0.3897436676277661 0.3897436676277661 0.3897436676277661 0.3897436676277661 0.3476231763409553 0.3476231763409553 0.3476231763409553 
0.3476231763409553 0.3042099576426452 0.3042099576426452 0.3042099576426452 0.3042099576426452 0.2598369539062373 0.2598369539062373 0.2598369539062373 0.2598369539062373 
0.2148905811479254 0.2148905811479254 0.2148905811479254 0.2148905811479254 0.1697069008539666 0.1697069008539666 0.1697069008539666 0.1697069008539666 0.1244302277667159 
0.1244302277667159 0.1244302277667159 0.1244302277667159 0.07891797447518041 0.07891797447518041 0.07891797447518041 0.07891797447518041 0.03278004964644721 0.03278004964644721 
0.03278004964644721 0.03278004964644721 -0.01442329097860562 -0.01442329097860562 -0.01442329097860562 -0.01442329097860562 -0.06290382383111477 -0.06290382383111477 -0.06290382383111477 
-0.06290382383111477 -0.1124364837867167 -0.1124364837867167 -0.1124364837867167 -0.1124364837867167 -0.1623464268765549 -0.1623464268765549 -0.1623464268765549 -0.1623464268765549 
-0.2117110291420157 -0.2117110291420157 -0.2117110291420157 -0.2117110291420157 -0.2596704221153509 -0.2596704221153509 -0.2596704221153509 -0.2596704221153509 -0.3056818479400306 
-0.3056818479400306 -0.3056818479400306 -0.3056818479400306 -0.3495976816385019 -0.3495976816385019 -0.3495976816385019 -0.3495976816385019 -0.3915577348518036 -0.3915577348518036 
-0.3915577348518036 -0.3915577348518036 -0.4317863741943838 -0.4317863741943838 -0.4317863741943838 -0.4317863741943838 -0.4704149796174494 -0.4704149796174494 -0.4704149796174494 
-0.4704149796174494 -0.5074064437206222 -0.5074064437206222 -0.5074064437206222 -0.5074064437206222 -0.5425839907938148 -0.5425839907938148 -0.5425839907938148 -0.5425839907938148 
-0.5757130114921061 -0.5757130114921061 -0.5757130114921061 -0.5757130114921061 -0.6065763111446689 -0.6065763111446689 -0.6065763111446689 -0.6065763111446689 -0.6350098279206795 
-0.6350098279206795 -0.6350098279206795 -0.6350098279206795 -0.6608998074763446 -0.6608998074763446 -0.6608998074763446 -0.6608998074763446 -0.6841616985966762 -0.6841616985966762 
-0.6841616985966762 -0.6841616985966762 -0.7047208950434722 -0.7047208950434722 -0.7047208950434722 -0.7047208950434722 -0.7225044809720269 -0.7225044809720269 -0.7225044809720269 
-0.7225044809720269 -0.7374425287304245 -0.7374425287304245 -0.7374425287304245 -0.7374425287304245 -0.7494730927832417 -0.7494730927832417 -0.7494730927832417 -0.7494730927832417 
-0.7585461224433707 -0.7585461224433707 -0.7585461224433707 -0.7585461224433707 -0.7646247599644856 -0.7646247599644856 -0.7646247599644856 -0.7646247599644856 -0.767684003515833 
-0.767684003515833 -0.767684003515833 -0.767684003515833 -0.7677131848128554 -0.7677131848128554 -0.7677131848128554 -0.7677131848128554 -0.7647143793424404 -0.7647143793424404 
-0.7647143793424404 -0.7647143793424404 -0.758696917269286 -0.758696917269286 -0.758696917269286 -0.758696917269286 -0.749685028688456 -0.749685028688456 -0.749685028688456 
-0.749685028688456 -0.7377144422889313 -0.7377144422889313 -0.7377144422889313 -0.7377144422889313 -0.722832480763231 -0.722832480763231 -0.722832480763231 -0.722832480763231 
-0.7050978558905014 -0.7050978558905014 -0.7050978558905014 -0.7050978558905014 -0.6845805533543304 -0.6845805533543304 -0.6845805533543304 -0.6845805533543304 -0.6613615297272174 
-0.6613615297272174 -0.6613615297272174 -0.6613615297272174 -0.6355324148469204 -0.6355324148469204 -0.6355324148469204 -0.6355324148469204 -0.6071951415113775 -0.6071951415113775 
-0.6071951415113775 -0.6071951415113775 -0.5764615445664287 -0.5764615445664287 -0.5764615445664287 -0.5764615445664287 -0.5434529165464325 -0.5434529165464325 -0.5434529165464325 
-0.5434529165464325 -0.508299528212401 -0.508299528212401 -0.508299528212401 -0.508299528212401 -0.4711401141901018 -0.4711401141901018 -0.4711401141901018 -0.4711401141901018 
-0.4321213256299755 -0.4321213256299755 -0.4321213256299755 -0.4321213256299755 -0.3913971517183569 -0.3913971517183569 -0.3913971517183569 -0.3913971517183569 -0.3491283120735719 
-0.3491283120735719 -0.3491283120735719 -0.3491283120735719 -0.3054816224723409 -0.3054816224723409 -0.3054816224723409 -0.3054816224723409 -0.2606293364466742 -0.2606293364466742 
-0.2606293364466742 -0.2606293364466742 -0.2147484654512385 -0.2147484654512385 -0.2147484654512385 -0.2147484654512385 -0.1680200803041997 -0.1680200803041997 -0.1680200803041997 
-0.1680200803041997 -0.1206285966231262 -0.1206285966231262 -0.1206285966231262 -0.1206285966231262 -0.07276104701587917 -0.07276104701587917 -0.07276104701587917 -0.07276104701587917 
-0.02460634288926416 -0.02460634288926416 -0.02460634288926416 -0.02460634288926416 0.02364547115625361 0.02364547115625361 0.02364547115625361 0.02364547115625361 0.07180396733965717 
0.07180396733965717 0.07180396733965717 0.07180396733965717 0.1196790861600134 0.1196790861600134 0.1196790861600134 0.1196790861600134 0.167081886400007 0.167081886400007 
0.167081886400007 0.167081886400007 0.2138252907975753 0.2138252907975753 0.2138252907975753 0.2138252907975753 0.2597248243750856 0.2597248243750856 0.2597248243750856 
0.2597248243750856 0.304599342714576 0.304599342714576 0.304599342714576 0.304599342714576 0.3482717462594137 0.3482717462594137 0.3482717462594137 0.3482717462594137 
0.3905696814020241 0.3905696814020241 0.3905696814020241 0.3905696814020241 0.4313262129596284 0.4313262129596284 0.4313262129596284 0.4313262129596284 0.4703805083334099 
0.4703805083334099 0.4703805083334099 0.4703805083334099 0.5075783952561881 0.5075783952561881 0.5075783952561881 0.5075783952561881 0.5427731659851718 0.5427731659851718 
0.5427731659851718 0.5427731659851718 0.5758258841716741 0.5758258841716741 0.5758258841716741 0.5758258841716741 0.606604714499227 0.606604714499227 0.606604714499227 
0.606604714499227 0.6350006803212211 0.6350006803212211 0.6350006803212211 0.6350006803212211 0.6608208853289022 0.6608208853289022 0.6608208853289022 0.6608208853289022 
0.6844234159549991 0.6844234159549991 0.6844234159549991 0.6844234159549991 0.7032743063516298 0.7032743063516298 0.7032743063516298 0.7032743063516298 0.7296339198522871 
0.7296339198522871 0.7296339198522871 0.7296339198522871 0.7170936017149474 0.7170936017149474 0.7170936017149474 0.7170936017149474 0.7234306945825724 0.7234306945825724 
0.7234306945825724 0.7234306945825724 0.7308385758986635 0.7308385758986635 0.7308385758986635 0.7308385758986635 0.7363553498228295 0.7363553498228295 0.7363553498228295 
0.7363553498228295 0.7392190711389277 0.7392190711389277 0.7392190711389277 0.7392190711389277 0.7392317793441224 0.7392317793441224 0.7392317793441224 0.7392317793441224 
0.7363446307308 0.7363446307308 0.7363446307308 0.7363446307308 0.7305548371261251 0.7305548371261251 0.7305548371261251 0.7305548371261251 0.7218813640362431 
0.7218813640362431 0.7218813640362431 0.7218813640362431 0.7103578941747373 0.7103578941747373 0.7103578941747373 0.7103578941747373 0.6960300761117244 0.6960300761117244 
0.6960300761117244 0.6960300761117244 0.6789548235970937 0.6789548235970937 0.6789548235970937 0.6789548235970937 0.6591998821970727 0.6591998821970727 0.6591998821970727 
0.6591998821970727 0.6368434201560249 0.6368434201560249 0.6368434201560249 0.6368434201560249 0.6119736607507339 0.6119736607507339 0.6119736607507339 0.6119736607507339 
0.5846887038815006 0.5846887038815006 0.5846887038815006 0.5846887038815006 0.5550965918225906 0.5550965918225906 0.5550965918225906 0.5550965918225906 0.5233150697837008 
0.5233150697837008 0.5233150697837008 0.5233150697837008 0.4894698419853559 0.4894698419853559 0.4894698419853559 0.4894698419853559 0.4536909486242995 0.4536909486242995 
0.4536909486242995 0.4536909486242995 0.4161105243939464 0.4161105243939464 0.4161105243939464 0.4161105243939464 0.3768696963113956 0.3768696963113956 0.3768696963113956 
0.3768696963113956 0.3361414177543219 0.3361414177543219 0.3361414177543219 0.3361414177543219 0.2941637527291207 0.2941637527291207 0.2941637527291207 0.2941637527291207 
0.2512582407256273 0.2512582407256273 0.2512582407256273 0.2512582407256273 0.2077975842188 0.2077975842188 0.2077975842188 0.2077975842188 0.1641056392611915 
0.1641056392611915 0.1641056392611915 0.1641056392611915 0.1203214169587527 0.1203214169587527 0.1203214169587527 0.1203214169587527 0.07630767889590225 0.07630767889590225 
0.07630767889590225 0.07630767889590225 0.03168901449157811 0.03168901449157811 0.03168901449157811 0.03168901449157811 -0.01395764349759684 -0.01395764349759684 -0.01395764349759684 
-0.01395764349759684 -0.06083574081751005 -0.06083574081751005 -0.06083574081751005 -0.06083574081751005 -0.1087279330964863 -0.1087279330964863 -0.1087279330964863 -0.1087279330964863 
-0.1569834692475671 -0.1569834692475671 -0.1569834692475671 -0.1569834692475671 -0.2047125524556812 -0.2047125524556812 -0.2047125524556812 -0.2047125524556812 -0.2510854081081924 
-0.2510854081081924 -0.2510854081081924 -0.2510854081081924 -0.2955775124015819 -0.2955775124015819 -0.2955775124015819 -0.2955775124015819 -0.338045148740107 -0.338045148740107 
-0.338045148740107 -0.338045148740107 -0.378622010329679 -0.378622010329679 -0.378622010329679 -0.378622010329679 -0.4175238525844161 -0.4175238525844161 -0.4175238525844161 
-0.4175238525844161 -0.4548772689260534 -0.4548772689260534 -0.4548772689260534 -0.4548772689260534 -0.4906466248269336 -0.4906466248269336 -0.4906466248269336 -0.4906466248269336 
-0.5246615472191762 -0.5246615472191762 -0.5246615472191762 -0.5246615472191762 -0.5566956676076378 -0.5566956676076378 -0.5566956676076378 -0.5566956676076378 -0.5865391908309949 
-0.5865391908309949 -0.5865391908309949 -0.5865391908309949 -0.6140334547188862 -0.6140334547188862 -0.6140334547188862 -0.6140334547188862 -0.6390683298825037 -0.6390683298825037 
-0.6390683298825037 -0.6390683298825037 -0.6615619352309199 -0.6615619352309199 -0.6615619352309199 -0.6615619352309199 -0.681442071433689 -0.681442071433689 -0.681442071433689 
-0.681442071433689 -0.6986382360038649 -0.6986382360038649 -0.6986382360038649 -0.6986382360038649 -0.7130828525984737 -0.7130828525984737 -0.7130828525984737 -0.7130828525984737 
-0.7247160557826511 -0.7247160557826511 -0.7247160557826511 -0.7247160557826511 -0.7334893979052284 -0.7334893979052284 -0.7334893979052284 -0.7334893979052284 -0.7393669870297725 
-0.7393669870297725 -0.7393669870297725 -0.7393669870297725 -0.7423252877536083 -0.7423252877536083 -0.7423252877536083 -0.7423252877536083 -0.7423539198980822 -0.7423539198980822 
-0.7423539198980822 -0.7423539198980822 -0.7394536435636181 -0.7394536435636181 -0.7394536435636181 -0.7394536435636181 -0.7336351549828684 -0.7336351549828684 -0.7336351549828684 
-0.7336351549828684 -0.7249210484672118 -0.7249210484672118 -0.7249210484672118 -0.7249210484672118 -0.7133459148324732 -0.7133459148324732 -0.7133459148324732 -0.7133459148324732 
-0.6989555319149119 -0.6989555319149119 -0.6989555319149119 -0.6989555319149119 -0.6818067260348376 -0.6818067260348376 -0.6818067260348376 -0.6818067260348376 -0.6619671695620186 
-0.6619671695620186 -0.6619671695620186 -0.6619671695620186 -0.6395151433008059 -0.6395151433008059 -0.6395151433008059 -0.6395151433008059 -0.6145392445104031 -0.6145392445104031 
-0.6145392445104031 -0.6145392445104031 -0.5871380369585018 -0.5871380369585018 -0.5871380369585018 -0.5871380369585018 -0.5574196611191761 -0.5574196611191761 -0.5574196611191761 
-0.5574196611191761 -0.5255014033600219 -0.5255014033600219 -0.5255014033600219 -0.5255014033600219 -0.4915092316361594 -0.4915092316361594 -0.4915092316361594 -0.4915092316361594 
-0.4555772978859071 -0.4555772978859071 -0.4555772978859071 -0.4555772978859071 -0.417847408947683 -0.417847408947683 -0.417847408947683 -0.417847408947683 -0.3784684672844987 
-0.3784684672844987 -0.3784684672844987 -0.3784684672844987 -0.3375958835120226 -0.3375958835120226 -0.3375958835120226 -0.3375958835120226 -0.2953909630417582 -0.2953909630417582 
-0.2953909630417582 -0.2953909630417582 -0.2520202693884646 -0.2520202693884646 -0.2520202693884646 -0.2520202693884646 -0.2076549667952161 -0.2076549667952161 -0.2076549667952161 
-0.2076549667952161 -0.1624701447950258 -0.1624701447950258 -0.1624701447950258 -0.1624701447950258 -0.116644127290409 -0.116644127290409 -0.116644127290409 -0.116644127290409 
-0.07035776877193092 -0.07035776877193092 -0.07035776877193092 -0.07035776877193092 -0.02379374045089366 -0.02379374045089366 -0.02379374045089366 -0.02379374045089366 0.02286419076495874 
0.02286419076495874 0.02286419076495874 0.02286419076495874 0.06943188749503634 0.06943188749503634 0.06943188749503634 0.06943188749503634 0.1157255684572619 0.1157255684572619 
0.1157255684572619 0.1157255684572619 0.1615625336414441 0.1615625336414441 0.1615625336414441 0.1615625336414441 0.2067618853555513 0.2067618853555513 0.2067618853555513 
0.2067618853555513 0.251145242227482 0.251145242227482 0.251145242227482 0.251145242227482 0.2945374434728421 0.2945374434728421 0.2945374434728421 0.2945374434728421 
0.3367672396320083 0.3367672396320083 0.3367672396320083 0.3367672396320083 0.3776679703674491 0.3776679703674491 0.3776679703674491 0.3776679703674491 0.4170782149903971 
0.4170782149903971 0.4170782149903971 0.4170782149903971 0.4548424529926881 0.4548424529926881 0.4548424529926881 0.4548424529926881 0.4908116063570099 0.4908116063570099 
0.4908116063570099 0.4908116063570099 0.5248438102688753 0.5248438102688753 0.5248438102688753 0.5248438102688753 0.5568047153158269 0.5568047153158269 0.5568047153158269 
0.5568047153158269 0.5865669176547808 0.5865669176547808 0.5865669176547808 0.5865669176547808 0.6140244428334228 0.6140244428334228 0.6140244428334228 0.6140244428334228 
0.6389943952626003 0.6389943952626003 0.6389943952626003 0.6389943952626003 0.6618035561881309 0.6618035561881309 0.6618035561881309 0.6618035561881309 0.6800950494184215 
0.6800950494184215 0.6800950494184215 0.6800950494184215 0.7054194104486875 0.7054194104486875 0.7054194104486875 0.7054194104486875 0.6789557453364747 0.6789557453364747 
0.6789557453364747 0.6789557453364747 0.6849767629013841 0.6849767629013841 0.6849767629013841 0.6849767629013841 0.692014783108264 0.692014783108264 0.692014783108264 
0.692014783108264 0.6972419033372341 0.6972419033372341 0.6972419033372341 0.6972419033372341 0.6999480681957748 0.6999480681957748 0.6999480681957748 0.6999480681957748 
0.6999529995830366 0.6999529995830366 0.6999529995830366 0.6999529995830366 0.6972141144837317 0.6972141144837317 0.6972141144837317 0.6972141144837317 0.6917298990171523 
0.6917298990171523 0.6917298990171523 0.6917298990171523 0.6835175612937704 0.6835175612937704 0.6835175612937704 0.6835175612937704 0.6726076341550149 0.6726076341550149 
0.6726076341550149 0.6726076341550149 0.659042411608991 0.659042411608991 0.659042411608991 0.659042411608991 0.6428753234279466 0.6428753234279466 0.6428753234279466 
0.6428753234279466 0.6241704225661697 0.6241704225661697 0.6241704225661697 0.6241704225661697 0.6030018502387655 0.6030018502387655 0.6030018502387655 0.6030018502387655 
0.5794533382244881 0.5794533382244881 0.5794533382244881 0.5794533382244881 0.5536179499820144 0.5536179499820144 0.5536179499820144 0.5536179499820144 0.5255980969664215 
0.5255980969664215 0.5255980969664215 0.5255980969664215 0.4955053053167291 0.4955053053167291 0.4955053053167291 0.4955053053167291 0.4634585895792572 0.4634585895792572 
0.4634585895792572 0.4634585895792572 0.4295810739638714 0.4295810739638714 0.4295810739638714 0.4295810739638714 0.3939979204374404 0.3939979204374404 0.3939979204374404 
0.3939979204374404 0.3568428561527331 0.3568428561527331 0.3568428561527331 0.3568428561527331 0.3182796984749669 0.3182796984749669 0.3182796984749669 0.3182796984749669 
0.2785337221221126 0.2785337221221126 0.2785337221221126 0.2785337221221126 0.2379089742447522 0.2379089742447522 0.2379089742447522 0.2379089742447522 0.1967578096174305 
0.1967578096174305 0.1967578096174305 0.1967578096174305 0.1553865267032607 0.1553865267032607 0.1553865267032607 0.1553865267032607 0.1139269310978913 0.1139269310978913 
0.1139269310978913 0.1139269310978913 0.0722498522379548 0.0722498522379548 0.0722498522379548 0.0722498522379548 0.03000086183731969 0.03000086183731969 0.03000086183731969 
0.03000086183731969 -0.01321990602785626 -0.01321990602785626 -0.01321990602785626 -0.01321990602785626 -0.05760511697378717 -0.05760511697378717 -0.05760511697378717 -0.05760511697378717 
-0.1029497550231916 -0.1029497550231916 -0.1029497550231916 -0.1029497550231916 -0.1486387306755674 -0.1486387306755674 -0.1486387306755674 -0.1486387306755674 -0.1938303262691583 
-0.1938303262691583 -0.1938303262691583 -0.1938303262691583 -0.2377390172053604 -0.2377390172053604 -0.2377390172053604 -0.2377390172053604 -0.2798677265487163 -0.2798677265487163 
-0.2798677265487163 -0.2798677265487163 -0.3200797233722787 -0.3200797233722787 -0.3200797233722787 -0.3200797233722787 -0.358501100707408 -0.358501100707408 -0.358501100707408 
-0.358501100707408 -0.3953359904381211 -0.3953359904381211 -0.3953359904381211 -0.3953359904381211 -0.4307043808697534 -0.4307043808697534 -0.4307043808697534 -0.4307043808697534 
-0.4645727532756688 -0.4645727532756688 -0.4645727532756688 -0.4645727532756688 -0.4967799550889234 -0.4967799550889234 -0.4967799550889234 -0.4967799550889234 -0.5271117041863485 
-0.5271117041863485 -0.5271117041863485 -0.5271117041863485 -0.5553693325596667 -0.5553693325596667 -0.5553693325596667 -0.5553693325596667 -0.5814025667687368 -0.5814025667687368 
-0.5814025667687368 -0.5814025667687368 -0.6051071024190118 -0.6051071024190118 -0.6051071024190118 -0.6051071024190118 -0.6264054035549915 -0.6264054035549915 -0.6264054035549915 
-0.6264054035549915 -0.6452291144153506 -0.6452291144153506 -0.6452291144153506 -0.6452291144153506 -0.6615114925754259 -0.6615114925754259 -0.6615114925754259 -0.6615114925754259 
-0.6751885642252278 -0.6751885642252278 -0.6751885642252278 -0.6751885642252278 -0.6862036219594481 -0.6862036219594481 -0.6862036219594481 -0.6862036219594481 -0.6945107248060817 
-0.6945107248060817 -0.6945107248060817 -0.6945107248060817 -0.7000759120390568 -0.7000759120390568 -0.7000759120390568 -0.7000759120390568 -0.7028771863498318 -0.7028771863498318 
-0.7028771863498318 -0.7028771863498318 -0.7029044305700032 -0.7029044305700032 -0.7029044305700032 -0.7029044305700032 -0.7001581511124694 -0.7001581511124694 -0.7001581511124694 
-0.7001581511124694 -0.694648848000273 -0.694648848000273 -0.694648848000273 -0.694648848000273 -0.6863979531096219 -0.6863979531096219 -0.6863979531096219 -0.6863979531096219 
-0.6754380151038897 -0.6754380151038897 -0.6754380151038897 -0.6754380151038897 -0.6618123846563333 -0.6618123846563333 -0.6618123846563333 -0.6618123846563333 -0.6455749069717389 
-0.6455749069717389 -0.6455749069717389 -0.6455749069717389 -0.6267896741731642 -0.6267896741731642 -0.6267896741731642 -0.6267896741731642 -0.6055308104466941 -0.6055308104466941 
-0.6055308104466941 -0.6055308104466941 -0.5818821986112269 -0.5818821986112269 -0.5818821986112269 -0.5818821986112269 -0.5559371607986268 -0.5559371607986268 -0.5559371607986268 
-0.5559371607986268 -0.527798089131954 -0.527798089131954 -0.527798089131954 -0.527798089131954 -0.4975760373972429 -0.4975760373972429 -0.4975760373972429 -0.4975760373972429 
-0.465390279946951 -0.465390279946951 -0.465390279946951 -0.465390279946951 -0.4313678399662647 -0.4313678399662647 -0.4313678399662647 -0.4313678399662647 -0.3956429885075482 
-0.3956429885075482 -0.3956429885075482 -0.3956429885075482 -0.3583567150970946 -0.3583567150970946 -0.3583567150970946 -0.3583567150970946 -0.3196561715809009 -0.3196561715809009 
-0.3196561715809009 -0.3196561715809009 -0.2796940913171407 -0.2796940913171407 -0.2796940913171407 -0.2796940913171407 -0.2386281862679397 -0.2386281862679397 -0.2386281862679397 
-0.2386281862679397 -0.1966205246012648 -0.1966205246012648 -0.1966205246012648 -0.1966205246012648 -0.1538368912705011 -0.1538368912705011 -0.1538368912705011 -0.1538368912705011 
-0.1104461338850543 -0.1104461338850543 -0.1104461338850543 -0.1104461338850543 -0.06661949625573342 -0.06661949625573342 -0.06661949625573342 -0.06661949625573342 -0.0225299422931826 
-0.0225299422931826 -0.0225299422931826 -0.0225299422931826 0.0216485268054173 0.0216485268054173 0.0216485268054173 0.0216485268054173 0.06574155917085153 0.06574155917085153 
0.06574155917085153 0.06574155917085153 0.1095751400361179 0.1095751400361179 0.1095751400361179 0.1095751400361179 0.1529762782422935 0.1529762782422935 0.1529762782422935 
0.1529762782422935 0.1957736890082967 0.1957736890082967 0.1957736890082967 0.1957736890082967 0.2377984701561689 0.2377984701561689 0.2377984701561689 0.2377984701561689 
0.2788847690911788 0.2788847690911788 0.2788847690911788 0.2788847690911788 0.3188704368341762 0.3188704368341762 0.3188704368341762 0.3188704368341762 0.357597669674254 
0.357597669674254 0.357597669674254 0.357597669674254 0.3949136250357115 0.3949136250357115 0.3949136250357115 0.3949136250357115 0.4306710467635113 0.4306710467635113 
0.4306710467635113 0.4306710467635113 0.4647287790635756 0.4647287790635756 0.4647287790635756 0.4647287790635756 0.4969524950947595 0.4969524950947595 0.4969524950947595 
0.4969524950947595 0.5272149872225255 0.5272149872225255 0.5272149872225255 0.5272149872225255 0.5553956147990465 0.5553956147990465 0.5553956147990465 0.5553956147990465 
0.5813940627071876 0.5813940627071876 0.5813940627071876 0.5813940627071876 0.6050369957049122 0.6050369957049122 0.6050369957049122 0.6050369957049122 0.626635025267649 
0.626635025267649 0.626635025267649 0.626635025267649 0.6439486113175599 0.6439486113175599 0.6439486113175599 0.6439486113175599 0.6679405694534282 0.6679405694534282 
0.6679405694534282 0.6679405694534282 0.6356842439433047 0.6356842439433047 0.6356842439433047 0.6356842439433047 0.6413140967850703 0.6413140967850703 0.6413140967850703 
0.6413140967850703 0.6479104291681673 0.6479104291681673 0.6479104291681673 0.6479104291681673 0.6528142812365629 0.6528142812365629 0.6528142812365629 0.6528142812365629 
0.655352555943473 0.655352555943473 0.655352555943473 0.655352555943473 0.6553564516251891 0.6553564516251891 0.6553564516251891 0.6553564516251891 0.6527887015210004 
0.6527887015210004 0.6527887015210004 0.6527887015210004 0.6476506374541801 0.6476506374541801 0.6476506374541801 0.6476506374541801 0.6399597477469295 0.6399597477469295 
0.6399597477469295 0.6399597477469295 0.6297447495530744 0.6297447495530744 0.6297447495530744 0.6297447495530744 0.6170447432130204 0.6170447432130204 0.6170447432130204 
0.6170447432130204 0.6019090906509494 0.6019090906509494 0.6019090906509494 0.6019090906509494 0.5843972308407406 0.5843972308407406 0.5843972308407406 0.5843972308407406 
0.5645782799205833 0.5645782799205833 0.5645782799205833 0.5645782799205833 0.5425305604235586 0.5425305604235586 0.5425305604235586 0.5425305604235586 0.5183412890263623 
0.5183412890263623 0.5183412890263623 0.5183412890263623 0.4921065073684401 0.4921065073684401 0.4921065073684401 0.4921065073684401 0.4639307960506804 0.4639307960506804 
0.4639307960506804 0.4639307960506804 0.4339257201834633 0.4339257201834633 0.4339257201834633 0.4339257201834633 0.4022066712177704 0.4022066712177704 0.4022066712177704 
0.4022066712177704 0.3688909401079512 0.3688909401079512 0.3688909401079512 0.3688909401079512 0.3341038035595648 0.3341038035595648 0.3341038035595648 0.3341038035595648 
0.2979985969364992 0.2979985969364992 0.2979985969364992 0.2979985969364992 0.2607860031368905 0.2607860031368905 0.2607860031368905 0.2607860031368905 0.2227502950280071 
0.2227502950280071 0.2227502950280071 0.2227502950280071 0.184221014961562 0.184221014961562 0.184221014961562 0.184221014961562 0.1454849128528904 0.1454849128528904 
0.1454849128528904 0.1454849128528904 0.1066658494214021 0.1066658494214021 0.1066658494214021 0.1066658494214021 0.06764365874058562 0.06764365874058562 0.06764365874058562 
0.06764365874058562 0.02808714045544568 0.02808714045544568 0.02808714045544568 0.02808714045544568 -0.01237802720468468 -0.01237802720468468 -0.01237802720468468 -0.01237802720468468 
-0.05393285597013307 -0.05393285597013307 -0.05393285597013307 -0.05393285597013307 -0.09638635746198393 -0.09638635746198393 -0.09638635746198393 -0.09638635746198393 -0.1391633637321183 
-0.1391633637321183 -0.1391633637321183 -0.1391633637321183 -0.1814758736224935 -0.1814758736224935 -0.1814758736224935 -0.1814758736224935 -0.2225878760981088 -0.2225878760981088 
-0.2225878760981088 -0.2225878760981088 -0.2620332047969813 -0.2620332047969813 -0.2620332047969813 -0.2620332047969813 -0.2996833211338875 -0.2996833211338875 -0.2996833211338875 
-0.2996833211338875 -0.3356562330735691 -0.3356562330735691 -0.3356562330735691 -0.3356562330735691 -0.3701433822186266 -0.3701433822186266 -0.3701433822186266 -0.3701433822186266 
-0.4032575092711782 -0.4032575092711782 -0.4032575092711782 -0.4032575092711782 -0.4349674662526736 -0.4349674662526736 -0.4349674662526736 -0.4349674662526736 -0.46512237358909 
-0.46512237358909 -0.46512237358909 -0.46512237358909 -0.4935214666755479 -0.4935214666755479 -0.4935214666755479 -0.4935214666755479 -0.5199785944772204 -0.5199785944772204 
-0.5199785944772204 -0.5199785944772204 -0.5443529929355689 -0.5443529929355689 -0.5443529929355689 -0.5443529929355689 -0.5665470154223322 -0.5665470154223322 -0.5665470154223322 
-0.5665470154223322 -0.5864881121127064 -0.5864881121127064 -0.5864881121127064 -0.5864881121127064 -0.6041123222256742 -0.6041123222256742 -0.6041123222256742 -0.6041123222256742 
-0.6193571739282019 -0.6193571739282019 -0.6193571739282019 -0.6193571739282019 -0.6321627634619823 -0.6321627634619823 -0.6321627634619823 -0.6321627634619823 -0.6424759619290804 
-0.6424759619290804 -0.6424759619290804 -0.6424759619290804 -0.6502537216038237 -0.6502537216038237 -0.6502537216038237 -0.6502537216038237 -0.6554642913704403 -0.6554642913704403 
-0.6554642913704403 -0.6554642913704403 -0.6580871918364732 -0.6580871918364732 -0.6580871918364732 -0.6580871918364732 -0.6581128016203879 -0.6581128016203879 -0.6581128016203879 
-0.6581128016203879 -0.6555414821780262 -0.6555414821780262 -0.6555414821780262 -0.6555414821780262 -0.6503832675212533 -0.6503832675212533 -0.6503832675212533 -0.6503832675212533 
-0.6426582453513108 -0.6426582453513108 -0.6426582453513108 -0.6426582453513108 -0.6323968056124658 -0.6323968056124658 -0.6323968056124658 -0.6323968056124658 -0.6196395097386165 
-0.6196395097386165 -0.6196395097386165 -0.6196395097386165 -0.6044367807731246 -0.6044367807731246 -0.6044367807731246 -0.6044367807731246 -0.5868486495768275 -0.5868486495768275 
-0.5868486495768275 -0.5868486495768275 -0.5669445233150103 -0.5669445233150103 -0.5669445233150103 -0.5669445233150103 -0.5448029369367242 -0.5448029369367242 -0.5448029369367242 
-0.5448029369367242 -0.5205112613579786 -0.5205112613579786 -0.5205112613579786 -0.5205112613579786 -0.4941653611047894 -0.4941653611047894 -0.4941653611047894 -0.4941653611047894 
-0.4658692126492784 -0.4658692126492784 -0.4658692126492784 -0.4658692126492784 -0.4357344900293332 -0.4357344900293332 -0.4357344900293332 -0.4357344900293332 -0.4038801224064137 
-0.4038801224064137 -0.4038801224064137 -0.4038801224064137 -0.3704318247511152 -0.3704318247511152 -0.3704318247511152 -0.3704318247511152 -0.3355216022836785 -0.3355216022836785 
-0.3355216022836785 -0.3355216022836785 -0.2992872297787043 -0.2992872297787043 -0.2992872297787043 -0.2992872297787043 -0.2618717076728835 -0.2618717076728835 -0.2618717076728835 
-0.2618717076728835 -0.2234226975528751 -0.2234226975528751 -0.2234226975528751 -0.2234226975528751 -0.1840919396077254 -0.1840919396077254 -0.1840919396077254 -0.1840919396077254 
-0.1440346542405108 -0.1440346542405108 -0.1440346542405108 -0.1440346542405108 -0.1034089297164085 -0.1034089297164085 -0.1034089297164085 -0.1034089297164085 -0.06237509793491357 