Title = Result/Post/Linear_Advection_2D/FVM/MLP_u1_Least_Square/Sine_Wave_2D/Quad100/
FileType = Solution
Variables = q
Zone T = Result/Post/Linear_Advection_2D/FVM/MLP_u1_Least_Square/Sine_Wave_2D/Quad100/
ZoneType = FETriangle
Nodes = 40000
Elements = 20000
DataPacking = Block
StrandID = 15
SolutionTime = 1.4
-0.5843526543002328 -0.5843526543002328 -0.5843526543002328 -0.5843526543002328 -0.6110260361309472 -0.6110260361309472 -0.6110260361309472 -0.6110260361309472 -0.6489499926489138 -0.6489499926489138 
-0.6489499926489138 -0.6489499926489138 -0.6875770643869599 -0.6875770643869599 -0.6875770643869599 -0.6875770643869599 -0.7242693726021892 -0.7242693726021892 -0.7242693726021892 
-0.7242693726021892 -0.7582865617471033 -0.7582865617471033 -0.7582865617471033 -0.7582865617471033 -0.7893519602025038 -0.7893519602025038 -0.7893519602025038 -0.7893519602025038 
-0.8173093332833186 -0.8173093332833186 -0.8173093332833186 -0.8173093332833186 -0.8420409209599354 -0.8420409209599354 -0.8420409209599354 -0.8420409209599354 -0.8634479688454439 
-0.8634479688454439 -0.8634479688454439 -0.8634479688454439 -0.8814462577831882 -0.8814462577831882 -0.8814462577831882 -0.8814462577831882 -0.8959652220853187 -0.8959652220853187 
-0.8959652220853187 -0.8959652220853187 -0.9069480398700797 -0.9069480398700797 -0.9069480398700797 -0.9069480398700797 -0.914352235440748 -0.914352235440748 -0.914352235440748 
-0.914352235440748 -0.9181471746984307 -0.9181471746984307 -0.9181471746984307 -0.9181471746984307 -0.9183174173862081 -0.9183174173862081 -0.9183174173862081 -0.9183174173862081 
-0.9148646755276704 -0.9148646755276704 -0.9148646755276704 -0.9148646755276704 -0.9078009070238611 -0.9078009070238611 -0.9078009070238611 -0.9078009070238611 -0.8971547923523264 
-0.8971547923523264 -0.8971547923523264 -0.8971547923523264 -0.8829681753623226 -0.8829681753623226 -0.8829681753623226 -0.8829681753623226 -0.8652969812652814 -0.8652969812652814 
-0.8652969812652814 -0.8652969812652814 -0.8442107461684152 -0.8442107461684152 -0.8442107461684152 -0.8442107461684152 -0.8197923717142382 -0.8197923717142382 -0.8197923717142382 
-0.8197923717142382 -0.7921377851962387 -0.7921377851962387 -0.7921377851962387 -0.7921377851962387 -0.7613557280147019 -0.7613557280147019 -0.7613557280147019 -0.7613557280147019 
-0.727567784085852 -0.727567784085852 -0.727567784085852 -0.727567784085852 -0.6909088035593529 -0.6909088035593529 -0.6909088035593529 -0.6909088035593529 -0.6515277802717963 
-0.6515277802717963 -0.6515277802717963 -0.6515277802717963 -0.6095890764907526 -0.6095890764907526 -0.6095890764907526 -0.6095890764907526 -0.5652736168229338 -0.5652736168229338 
-0.5652736168229338 -0.5652736168229338 -0.5187793757767905 -0.5187793757767905 -0.5187793757767905 -0.5187793757767905 -0.4703202566410262 -0.4703202566410262 -0.4703202566410262 
-0.4703202566410262 -0.4201224526298067 -0.4201224526298067 -0.4201224526298067 -0.4201224526298067 -0.3684177302945795 -0.3684177302945795 -0.3684177302945795 -0.3684177302945795 
-0.3154338318617379 -0.3154338318617379 -0.3154338318617379 -0.3154338318617379 -0.2613832570628192 -0.2613832570628192 -0.2613832570628192 -0.2613832570628192 -0.2064527782792684 
-0.2064527782792684 -0.2064527782792684 -0.2064527782792684 -0.1507967606770911 -0.1507967606770911 -0.1507967606770911 -0.1507967606770911 -0.09453729553432412 -0.09453729553432412 
-0.09453729553432412 -0.09453729553432412 -0.03777307112932377 -0.03777307112932377 -0.03777307112932377 -0.03777307112932377 0.0194031248891172 0.0194031248891172 0.0194031248891172 
0.0194031248891172 0.07688091254028352 0.07688091254028352 0.07688091254028352 0.07688091254028352 0.1345077838148456 0.1345077838148456 0.1345077838148456 0.1345077838148456 
0.1920697381077013 0.1920697381077013 0.1920697381077013 0.1920697381077013 0.249282916135123 0.249282916135123 0.249282916135123 0.249282916135123 0.3057998697847034 
0.3057998697847034 0.3057998697847034 0.3057998697847034 0.3612305526120602 0.3612305526120602 0.3612305526120602 0.3612305526120602 0.415174161593807 0.415174161593807 
0.415174161593807 0.415174161593807 0.467254811250396 0.467254811250396 0.467254811250396 0.467254811250396 0.5171527238825869 0.5171527238825869 0.5171527238825869 
0.5171527238825869 0.5646236775344302 0.5646236775344302 0.5646236775344302 0.5646236775344302 0.6095026111521975 0.6095026111521975 0.6095026111521975 0.6095026111521975 
0.6516915873426228 0.6516915873426228 0.6516915873426228 0.6516915873426228 0.6911364189436779 0.6911364189436779 0.6911364189436779 0.6911364189436779 0.7277989235541981 
0.7277989235541981 0.7277989235541981 0.7277989235541981 0.7616322458660092 0.7616322458660092 0.7616322458660092 0.7616322458660092 0.7925649967586481 0.7925649967586481 
0.7925649967586481 0.7925649967586481 0.8204968178988492 0.8204968178988492 0.8204968178988492 0.8204968178988492 0.8453045073382911 0.8453045073382911 0.8453045073382911 
0.8453045073382911 0.8668551394849087 0.8668551394849087 0.8668551394849087 0.8668551394849087 0.8850213927380828 0.8850213927380828 0.8850213927380828 0.8850213927380828 
0.8996946309995134 0.8996946309995134 0.8996946309995134 0.8996946309995134 0.9107930543128298 0.9107930543128298 0.9107930543128298 0.9107930543128298 0.9182643901398608 
0.9182643901398608 0.9182643901398608 0.9182643901398608 0.9220807020143702 0.9220807020143702 0.9220807020143702 0.9220807020143702 0.9222366542392371 0.9222366542392371 
0.9222366542392371 0.9222366542392371 0.9187459089662365 0.9187459089662365 0.9187459089662365 0.9187459089662365 0.9116301316324951 0.9116301316324951 0.9116301316324951 
0.9116301316324951 0.9009235300759354 0.9009235300759354 0.9009235300759354 0.9009235300759354 0.8866693474586367 0.8866693474586367 0.8866693474586367 0.8866693474586367 
0.8689221021662938 0.8689221021662938 0.8689221021662938 0.8689221021662938 0.8477488721195848 0.8477488721195848 0.8477488721195848 0.8477488721195848 0.8232305080267999 
0.8232305080267999 0.8232305080267999 0.8232305080267999 0.7954620643491942 0.7954620643491942 0.7954620643491942 0.7954620643491942 0.7645525595821844 0.7645525595821844 
0.7645525595821844 0.7645525595821844 0.7306242443703163 0.7306242443703163 0.7306242443703163 0.7306242443703163 0.6938116661604714 0.6938116661604714 0.6938116661604714 
0.6938116661604714 0.6542607468006458 0.6542607468006458 0.6542607468006458 0.6542607468006458 0.6121279900298328 0.6121279900298328 0.6121279900298328 0.6121279900298328 
0.5675798226363324 0.5675798226363324 0.5675798226363324 0.5675798226363324 0.5207920104542882 0.5207920104542882 0.5207920104542882 0.5207920104542882 0.4719490739376967 
0.4719490739376967 0.4719490739376967 0.4719490739376967 0.4212436474777974 0.4212436474777974 0.4212436474777974 0.4212436474777974 0.3688757602005907 0.3688757602005907 
0.3688757602005907 0.3688757602005907 0.3150520455162424 0.3150520455162424 0.3150520455162424 0.3150520455162424 0.2599849028882513 0.2599849028882513 0.2599849028882513 
0.2599849028882513 0.2038916374117954 0.2038916374117954 0.2038916374117954 0.2038916374117954 0.1469935934432528 0.1469935934432528 0.1469935934432528 0.1469935934432528 
0.0895152939866021 0.0895152939866021 0.0895152939866021 0.0895152939866021 0.0316835551612361 0.0316835551612361 0.0316835551612361 0.0316835551612361 -0.02627330513579711 
-0.02627330513579711 -0.02627330513579711 -0.02627330513579711 -0.08412676145157662 -0.08412676145157662 -0.08412676145157662 -0.08412676145157662 -0.1416471663578722 -0.1416471663578722 
-0.1416471663578722 -0.1416471663578722 -0.1986129956231462 -0.1986129956231462 -0.1986129956231462 -0.1986129956231462 -0.2547741760713538 -0.2547741760713538 -0.2547741760713538 
-0.2547741760713538 -0.3100219785117569 -0.3100219785117569 -0.3100219785117569 -0.3100219785117569 -0.3636343630334098 -0.3636343630334098 -0.3636343630334098 -0.3636343630334098 
-0.4176389230364198 -0.4176389230364198 -0.4176389230364198 -0.4176389230364198 -0.4619215506381504 -0.4619215506381504 -0.4619215506381504 -0.4619215506381504 -0.5398090871005066 
-0.5398090871005066 -0.5398090871005066 -0.5398090871005066 -0.5747600630772702 -0.5747600630772702 -0.5747600630772702 -0.5747600630772702 -0.6011399862245559 -0.6011399862245559 
-0.6011399862245559 -0.6011399862245559 -0.6384311350479371 -0.6384311350479371 -0.6384311350479371 -0.6384311350479371 -0.6763931258239677 -0.6763931258239677 -0.6763931258239677 
-0.6763931258239677 -0.7124591575707824 -0.7124591575707824 -0.7124591575707824 -0.7124591575707824 -0.7459054090307615 -0.7459054090307615 -0.7459054090307615 -0.7459054090307615 
-0.7764571776516442 -0.7764571776516442 -0.7764571776516442 -0.7764571776516442 -0.8039572490904169 -0.8039572490904169 -0.8039572490904169 -0.8039572490904169 -0.8282869223412149 
-0.8282869223412149 -0.8282869223412149 -0.8282869223412149 -0.8493471739289562 -0.8493471739289562 -0.8493471739289562 -0.8493471739289562 -0.8670541407553045 -0.8670541407553045 
-0.8670541407553045 -0.8670541407553045 -0.8813380046821965 -0.8813380046821965 -0.8813380046821965 -0.8813380046821965 -0.8921427669734399 -0.8921427669734399 -0.8921427669734399 
-0.8921427669734399 -0.8994261599353487 -0.8994261599353487 -0.8994261599353487 -0.8994261599353487 -0.9031591173648557 -0.9031591173648557 -0.9031591173648557 -0.9031591173648557 
-0.903327254936758 -0.903327254936758 -0.903327254936758 -0.903327254936758 -0.8999306663690476 -0.8999306663690476 -0.8999306663690476 -0.8999306663690476 -0.8929826460603577 
-0.8929826460603577 -0.8929826460603577 -0.8929826460603577 -0.8825104224536717 -0.8825104224536717 -0.8825104224536717 -0.8825104224536717 -0.8685554329713394 -0.8685554329713394 
-0.8685554329713394 -0.8685554329713394 -0.8511727301535169 -0.8511727301535169 -0.8511727301535169 -0.8511727301535169 -0.8304307626193004 -0.8304307626193004 -0.8304307626193004 
-0.8304307626193004 -0.806411081144674 -0.806411081144674 -0.806411081144674 -0.806411081144674 -0.779208033540308 -0.779208033540308 -0.779208033540308 -0.779208033540308 
-0.748928575170545 -0.748928575170545 -0.748928575170545 -0.748928575170545 -0.7156923051103441 -0.7156923051103441 -0.7156923051103441 -0.7156923051103441 -0.679631880040757 
-0.679631880040757 -0.679631880040757 -0.679631880040757 -0.6408938722075956 -0.6408938722075956 -0.6408938722075956 -0.6408938722075956 -0.5996399671517911 -0.5996399671517911 
-0.5996399671517911 -0.5996399671517911 -0.5560481317711725 -0.5560481317711725 -0.5560481317711725 -0.5560481317711725 -0.5103130896344058 -0.5103130896344058 -0.5103130896344058 
-0.5103130896344058 -0.4626452169974227 -0.4626452169974227 -0.4626452169974227 -0.4626452169974227 -0.4132669666202092 -0.4132669666202092 -0.4132669666202092 -0.4132669666202092 
-0.3624062693317268 -0.3624062693317268 -0.3624062693317268 -0.3624062693317268 -0.310287106449744 -0.310287106449744 -0.310287106449744 -0.310287106449744 -0.2571184906377049 
-0.2571184906377049 -0.2571184906377049 -0.2571184906377049 -0.2030841661539828 -0.2030841661539828 -0.2030841661539828 -0.2030841661539828 -0.1483360445820902 -0.1483360445820902 
-0.1483360445820902 -0.1483360445820902 -0.09299433059993552 -0.09299433059993552 -0.09299433059993552 -0.09299433059993552 -0.03715622919994768 -0.03715622919994768 -0.03715622919994768 
-0.03715622919994768 0.01908686711867233 0.01908686711867233 0.01908686711867233 0.01908686711867233 0.07562630170948761 0.07562630170948761 0.07562630170948761 0.07562630170948761 
0.1323120449182474 0.1323120449182474 0.1323120449182474 0.1323120449182474 0.1889336561426843 0.1889336561426843 0.1889336561426843 0.1889336561426843 0.2452120438175505 
0.2452120438175505 0.2452120438175505 0.2452120438175505 0.300805602649991 0.300805602649991 0.300805602649991 0.300805602649991 0.3553308193649222 0.3553308193649222 
0.3553308193649222 0.3553308193649222 0.4083935530115655 0.4083935530115655 0.4083935530115655 0.4083935530115655 0.4596240980528559 0.4596240980528559 0.4596240980528559 
0.4596240980528559 0.5087078581921565 0.5087078581921565 0.5087078581921565 0.5087078581921565 0.5554044925290982 0.5554044925290982 0.5554044925290982 0.5554044925290982 
0.5995514946315826 0.5995514946315826 0.5995514946315826 0.5995514946315826 0.6410523907912058 0.6410523907912058 0.6410523907912058 0.6410523907912058 0.6798537814083532 
0.6798537814083532 0.6798537814083532 0.6798537814083532 0.7159180668859693 0.7159180668859693 0.7159180668859693 0.7159180668859693 0.7491991728607064 0.7491991728607064 
0.7491991728607064 0.7491991728607064 0.7796269322844706 0.7796269322844706 0.7796269322844706 0.7796269322844706 0.8071026977010908 0.8071026977010908 0.8071026977010908 
0.8071026977010908 0.8315053435006503 0.8315053435006503 0.8315053435006503 0.8315053435006503 0.8527041601142594 0.8527041601142594 0.8527041601142594 0.8527041601142594 
0.8705739314815308 0.8705739314815308 0.8705739314815308 0.8705739314815308 0.8850078045253613 0.8850078045253613 0.8850078045253613 0.8850078045253613 0.895925241287428 
0.895925241287428 0.895925241287428 0.895925241287428 0.9032741792414345 0.9032741792414345 0.9032741792414345 0.9032741792414345 0.9070280324913365 0.9070280324913365 
0.9070280324913365 0.9070280324913365 0.9071821651444398 0.9071821651444398 0.9071821651444398 0.9071821651444398 0.9037483079066368 0.9037483079066368 0.9037483079066368 
0.9037483079066368 0.8967492368581184 0.8967492368581184 0.8967492368581184 0.8967492368581184 0.8862175946071362 0.8862175946071362 0.8862175946071362 0.8862175946071362 
0.8721961888850009 0.8721961888850009 0.8721961888850009 0.8721961888850009 0.8547386953426047 0.8547386953426047 0.8547386953426047 0.8547386953426047 0.8339111550328886 
0.8339111550328886 0.8339111550328886 0.8339111550328886 0.809793110900753 0.809793110900753 0.809793110900753 0.809793110900753 0.7824780579274085 0.7824780579274085 
0.7824780579274085 0.7824780579274085 0.7520732233866192 0.7520732233866192 0.7520732233866192 0.7520732233866192 0.7186988543049573 0.7186988543049573 0.7186988543049573 
0.7186988543049573 0.6824872966116051 0.6824872966116051 0.6824872966116051 0.6824872966116051 0.6435820875834466 0.6435820875834466 0.6435820875834466 0.6435820875834466 
0.6021371755267076 0.6021371755267076 0.6021371755267076 0.6021371755267076 0.5583162711370608 0.5583162711370608 0.5583162711370608 0.5583162711370608 0.5122922725660182 
0.5122922725660182 0.5122922725660182 0.5122922725660182 0.4642466899710183 0.4642466899710183 0.4642466899710183 0.4642466899710183 0.4143690147563364 0.4143690147563364 
0.4143690147563364 0.4143690147563364 0.3628560116463369 0.3628560116463369 0.3628560116463369 0.3628560116463369 0.3099109408821012 0.3099109408821012 0.3099109408821012 
0.3099109408821012 0.2557427336949875 0.2557427336949875 0.2557427336949875 0.2557427336949875 0.2005651462363554 0.2005651462363554 0.2005651462363554 0.2005651462363554 
0.1445959078966486 0.1445959078966486 0.1445959078966486 0.1445959078966486 0.08805587524214943 0.08805587524214943 0.08805587524214943 0.08805587524214943 0.03116816190408338 
0.03116816190408338 0.03116816190408338 0.03116816190408338 -0.02584264176595677 -0.02584264176595677 -0.02584264176595677 -0.02584264176595677 -0.08275173192520008 -0.08275173192520008 
-0.08275173192520008 -0.08275173192520008 -0.1393332378300161 -0.1393332378300161 -0.1393332378300161 -0.1393332378300161 -0.1953691103229708 -0.1953691103229708 -0.1953691103229708 
-0.1953691103229708 -0.2506139766325247 -0.2506139766325247 -0.2506139766325247 -0.2506139766325247 -0.3049581322670215 -0.3049581322670215 -0.3049581322670215 -0.3049581322670215 
-0.3577033752692125 -0.3577033752692125 -0.3577033752692125 -0.3577033752692125 -0.4107923945844079 -0.4107923945844079 -0.4107923945844079 -0.4107923945844079 -0.4544872819529795 
-0.4544872819529795 -0.4544872819529795 -0.4544872819529795 -0.530779863816126 -0.530779863816126 -0.530779863816126 -0.530779863816126 -0.5590874971922821 -0.5590874971922821 
-0.5590874971922821 -0.5590874971922821 -0.5847566819217613 -0.5847566819217613 -0.5847566819217613 -0.5847566819217613 -0.6210811366630483 -0.6210811366630483 -0.6210811366630483 
-0.6210811366630483 -0.6580300643775784 -0.6580300643775784 -0.6580300643775784 -0.6580300643775784 -0.6931139350311581 -0.6931139350311581 -0.6931139350311581 -0.6931139350311581 
-0.7256400281479096 -0.7256400281479096 -0.7256400281479096 -0.7256400281479096 -0.7553491966770919 -0.7553491966770919 -0.7553491966770919 -0.7553491966770919 -0.7820924776226745 
-0.7820924776226745 -0.7820924776226745 -0.7820924776226745 -0.8057554725375231 -0.8057554725375231 -0.8057554725375231 -0.8057554725375231 -0.8262413398867245 -0.8262413398867245 
-0.8262413398867245 -0.8262413398867245 -0.8434673834120801 -0.8434673834120801 -0.8434673834120801 -0.8434673834120801 -0.8573645480011034 -0.8573645480011034 -0.8573645480011034 
-0.8573645480011034 -0.867877412051177 -0.867877412051177 -0.867877412051177 -0.867877412051177 -0.8749642233465722 -0.8749642233465722 -0.8749642233465722 -0.8749642233465722 
-0.8785968770550308 -0.8785968770550308 -0.8785968770550308 -0.8785968770550308 -0.8787614761315283 -0.8787614761315283 -0.8787614761315283 -0.8787614761315283 -0.8754579264164805 
-0.8754579264164805 -0.8754579264164805 -0.8754579264164805 -0.8686992486340912 -0.8686992486340912 -0.8686992486340912 -0.8686992486340912 -0.8585120775471344 -0.8585120775471344 
-0.8585120775471344 -0.8585120775471344 -0.844936704252933 -0.844936704252933 -0.844936704252933 -0.844936704252933 -0.8280267698774999 -0.8280267698774999 -0.8280267698774999 
-0.8280267698774999 -0.8078489425675702 -0.8078489425675702 -0.8078489425675702 -0.8078489425675702 -0.7844825757830425 -0.7844825757830425 -0.7844825757830425 -0.7844825757830425 
-0.7580194486253937 -0.7580194486253937 -0.7580194486253937 -0.7580194486253937 -0.7285635959551173 -0.7285635959551173 -0.7285635959551173 -0.7285635959551173 -0.6962313572241516 
-0.6962313572241516 -0.6962313572241516 -0.6962313572241516 -0.6611517805310198 -0.6611517805310198 -0.6611517805310198 -0.6611517805310198 -0.6234674531662709 -0.6234674531662709 
-0.6234674531662709 -0.6234674531662709 -0.5833356598375141 -0.5833356598375141 -0.5833356598375141 -0.5833356598375141 -0.5409295132890565 -0.5409295132890565 -0.5409295132890565 
-0.5409295132890565 -0.4964384142092356 -0.4964384142092356 -0.4964384142092356 -0.4964384142092356 -0.4500669793315575 -0.4500669793315575 -0.4500669793315575 -0.4500669793315575 
-0.4020315697233119 -0.4020315697233119 -0.4020315697233119 -0.4020315697233119 -0.3525538835755536 -0.3525538835755536 -0.3525538835755536 -0.3525538835755536 -0.301851799118284 
-0.301851799118284 -0.301851799118284 -0.301851799118284 -0.2501286675377871 -0.2501286675377871 -0.2501286675377871 -0.2501286675377871 -0.1975632989975647 -0.1975632989975647 
-0.1975632989975647 -0.1975632989975647 -0.1443035714991015 -0.1443035714991015 -0.1443035714991015 -0.1443035714991015 -0.09046653513610328 -0.09046653513610328 -0.09046653513610328 
-0.09046653513610328 -0.03614685424169722 -0.03614685424169722 -0.03614685424169722 -0.03614685424169722 0.01856650435389505 0.01856650435389505 0.01856650435389505 0.01856650435389505 
0.07356784719214544 0.07356784719214544 0.07356784719214544 0.07356784719214544 0.1287113096670209 0.1287113096670209 0.1287113096670209 0.1287113096670209 0.1837923225644075 
0.1837923225644075 0.1837923225644075 0.1837923225644075 0.2385395620567244 0.2385395620567244 0.2385395620567244 0.2385395620567244 0.292620873793019 0.292620873793019 
0.292620873793019 0.292620873793019 0.3456632737472018 0.3456632737472018 0.3456632737472018 0.3456632737472018 0.39728334950031 0.39728334950031 0.39728334950031 
0.39728334950031 0.4471213672971113 0.4471213672971113 0.4471213672971113 0.4471213672971113 0.4948711362335805 0.4948711362335805 0.4948711362335805 0.4948711362335805 
0.5402986773167948 0.5402986773167948 0.5402986773167948 0.5402986773167948 0.5832457535915484 0.5832457535915484 0.5832457535915484 0.5832457535915484 0.6236184272272298 
0.6236184272272298 0.6236184272272298 0.6236184272272298 0.6613647416699425 0.6613647416699425 0.6613647416699425 0.6613647416699425 0.6964481810156534 0.6964481810156534 
0.6964481810156534 0.6964481810156534 0.7288240275354815 0.7288240275354815 0.7288240275354815 0.7288240275354815 0.7584241319604808 0.7584241319604808 0.7584241319604808 
0.7584241319604808 0.7851526130968851 0.7851526130968851 0.7851526130968851 0.7851526130968851 0.8088916805685319 0.8088916805685319 0.8088916805685319 0.8088916805685319 
0.8295141807495671 0.8295141807495671 0.8295141807495671 0.8295141807495671 0.8468982716031295 0.8468982716031295 0.8468982716031295 0.8468982716031295 0.8609399431563208 
0.8609399431563208 0.8609399431563208 0.8609399431563208 0.8715607014111999 0.8715607014111999 0.8715607014111999 0.8715607014111999 0.8787097402699119 0.8787097402699119 
0.8787097402699119 0.8787097402699119 0.8823615811109625 0.8823615811109625 0.8823615811109625 0.8823615811109625 0.8825118335813202 0.8825118335813202 0.8825118335813202 
0.8825118335813202 0.8791716467157602 0.8791716467157602 0.8791716467157602 0.8791716467157602 0.8723631656967803 0.8723631656967803 0.8723631656967803 0.8723631656967803 
0.8621181926268711 0.8621181926268711 0.8621181926268711 0.8621181926268711 0.8484782728437025 0.8484782728437025 0.8484782728437025 0.8484782728437025 0.8314956582689583 
0.8314956582689583 0.8314956582689583 0.8314956582689583 0.8112346482765491 0.8112346482765491 0.8112346482765491 0.8112346482765491 0.7877726338046958 0.7877726338046958 
0.7877726338046958 0.7877726338046958 0.761200563933806 0.761200563933806 0.761200563933806 0.761200563933806 0.7316227391830725 0.7316227391830725 0.7316227391830725 
0.7316227391830725 0.6991561278033731 0.6991561278033731 0.6991561278033731 0.6991561278033731 0.6639294714150853 0.6639294714150853 0.6639294714150853 0.6639294714150853 
0.6260824018597763 0.6260824018597763 0.6260824018597763 0.6260824018597763 0.5857646807395038 0.5857646807395038 0.5857646807395038 0.5857646807395038 0.5431355676625631 
0.5431355676625631 0.5431355676625631 0.5431355676625631 0.4983632605058713 0.4983632605058713 0.4983632605058713 0.4983632605058713 0.4516243351902241 0.4516243351902241 
0.4516243351902241 0.4516243351902241 0.4031031315328888 0.4031031315328888 0.4031031315328888 0.4031031315328888 0.3529910639720731 0.3529910639720731 0.3529910639720731 
0.3529910639720731 0.3014858645158437 0.3014858645158437 0.3014858645158437 0.3014858645158437 0.2487907806457025 0.2487907806457025 0.2487907806457025 0.2487907806457025 
0.1951137527428157 0.1951137527428157 0.1951137527428157 0.1951137527428157 0.1406665864142888 0.1406665864142888 0.1406665864142888 0.1406665864142888 0.08566413037898774 
0.08566413037898774 0.08566413037898774 0.08566413037898774 0.03032343078148909 0.03032343078148909 0.03032343078148909 0.03032343078148909 -0.02513702769540961 -0.02513702769540961 
-0.02513702769540961 -0.02513702769540961 -0.08049855067565681 -0.08049855067565681 -0.08049855067565681 -0.08049855067565681 -0.1355414059563616 -0.1355414059563616 -0.1355414059563616 
-0.1355414059563616 -0.1900534671290448 -0.1900534671290448 -0.1900534671290448 -0.1900534671290448 -0.2437960380782589 -0.2437960380782589 -0.2437960380782589 -0.2437960380782589 
-0.2966624024874159 -0.2966624024874159 -0.2966624024874159 -0.2966624024874159 -0.3479731091537284 -0.3479731091537284 -0.3479731091537284 -0.3479731091537284 -0.3996204542680104 
-0.3996204542680104 -0.3996204542680104 -0.3996204542680104 -0.442115210552496 -0.442115210552496 -0.442115210552496 -0.442115210552496 -0.5163497533220378 -0.5163497533220378 
-0.5163497533220378 -0.5163497533220378 -0.5403934389239586 -0.5403934389239586 -0.5403934389239586 -0.5403934389239586 -0.5651815835034814 -0.5651815835034814 -0.5651815835034814 
-0.5651815835034814 -0.6002937264811883 -0.6002937264811883 -0.6002937264811883 -0.6002937264811883 -0.6360255986514162 -0.6360255986514162 -0.6360255986514162 -0.6360255986514162 
-0.6699520961137535 -0.6699520961137535 -0.6699520961137535 -0.6699520961137535 -0.7013979307230875 -0.7013979307230875 -0.7013979307230875 -0.7013979307230875 -0.7301133579216789 
-0.7301133579216789 -0.7301133579216789 -0.7301133579216789 -0.7559575570620201 -0.7559575570620201 -0.7559575570620201 -0.7559575570620201 -0.7788231453069843 -0.7788231453069843 
-0.7788231453069843 -0.7788231453069843 -0.7986187112359879 -0.7986187112359879 -0.7986187112359879 -0.7986187112359879 -0.8152653360174448 -0.8152653360174448 -0.8152653360174448 
-0.8152653360174448 -0.8286963582886516 -0.8286963582886516 -0.8286963582886516 -0.8286963582886516 -0.8388577502166206 -0.8388577502166206 -0.8388577502166206 -0.8388577502166206 
-0.8457085216065936 -0.8457085216065936 -0.8457085216065936 -0.8457085216065936 -0.8492211000618921 -0.8492211000618921 -0.8492211000618921 -0.8492211000618921 -0.8493816403226765 
-0.8493816403226765 -0.8493816403226765 -0.8493816403226765 -0.8461896728602922 -0.8461896728602922 -0.8461896728602922 -0.8461896728602922 -0.8396578016892892 -0.8396578016892892 
-0.8396578016892892 -0.8396578016892892 -0.8298117962301795 -0.8298117962301795 -0.8298117962301795 -0.8298117962301795 -0.8166906167800552 -0.8166906167800552 -0.8166906167800552 
-0.8166906167800552 -0.8003461980082476 -0.8003461980082476 -0.8003461980082476 -0.8003461980082476 -0.7808430605839853 -0.7808430605839853 -0.7808430605839853 -0.7808430605839853 
-0.7582579713977682 -0.7582579713977682 -0.7582579713977682 -0.7582579713977682 -0.7326796752153802 -0.7326796752153802 -0.7326796752153802 -0.7326796752153802 -0.7042087383056025 
-0.7042087383056025 -0.7042087383056025 -0.7042087383056025 -0.6729576087889596 -0.6729576087889596 -0.6729576087889596 -0.6729576087889596 -0.6390510144926089 -0.6390510144926089 
-0.6390510144926089 -0.6390510144926089 -0.6026267674513532 -0.6026267674513532 -0.6026267674513532 -0.6026267674513532 -0.5638368807902963 -0.5638368807902963 -0.5638368807902963 
-0.5638368807902963 -0.5228486584159641 -0.5228486584159641 -0.5228486584159641 -0.5228486584159641 -0.4798451382457321 -0.4798451382457321 -0.4798451382457321 -0.4798451382457321 
-0.4350240588698827 -0.4350240588698827 -0.4350240588698827 -0.4350240588698827 -0.388594511554562 -0.388594511554562 -0.388594511554562 -0.388594511554562 -0.3407707591342963 
-0.3407707591342963 -0.3407707591342963 -0.3407707591342963 -0.2917633984273219 -0.2917633984273219 -0.2917633984273219 -0.2917633984273219 -0.2417690213789572 -0.2417690213789572 
-0.2417690213789572 -0.2417690213789572 -0.1909605379380996 -0.1909605379380996 -0.1909605379380996 -0.1909605379380996 -0.1394809886789717 -0.1394809886789717 -0.1394809886789717 
-0.1394809886789717 -0.08744362319101535 -0.08744362319101535 -0.08744362319101535 -0.08744362319101535 -0.03494002913780728 -0.03494002913780728 -0.03494002913780728 -0.03494002913780728 
0.01794376846561523 0.01794376846561523 0.01794376846561523 0.01794376846561523 0.0711056535735146 0.0711056535735146 0.0711056535735146 0.0711056535735146 0.1244047596263219 
0.1244047596263219 0.1244047596263219 0.1244047596263219 0.1776435332881261 0.1776435332881261 0.1776435332881261 0.1776435332881261 0.2305599111264269 0.2305599111264269 
0.2305599111264269 0.2305599111264269 0.2828329945006293 0.2828329945006293 0.2828329945006293 0.2828329945006293 0.3341023377204375 0.3341023377204375 0.3341023377204375 
0.3341023377204375 0.3839973109320737 0.3839973109320737 0.3839973109320737 0.3839973109320737 0.4321700751564355 0.4321700751564355 0.4321700751564355 0.4321700751564355 
0.47832448477529 0.47832448477529 0.47832448477529 0.47832448477529 0.5222341860813786 0.5222341860813786 0.5222341860813786 0.5222341860813786 0.563746082709925 
0.563746082709925 0.563746082709925 0.563746082709925 0.6027693116214098 0.6027693116214098 0.6027693116214098 0.6027693116214098 0.6392536804385314 0.6392536804385314 
0.6392536804385314 0.6392536804385314 0.6731639951926072 0.6731639951926072 0.6731639951926072 0.6731639951926072 0.7044571698317874 0.7044571698317874 0.7044571698317874 
0.7044571698317874 0.7330674620964186 0.7330674620964186 0.7330674620964186 0.7330674620964186 0.7589022832488928 0.7589022832488928 0.7589022832488928 0.7589022832488928 
0.7818478122459915 0.7818478122459915 0.7818478122459915 0.7818478122459915 0.8017811266283761 0.8017811266283761 0.8017811266283761 0.8017811266283761 0.8185843968132476 
0.8185843968132476 0.8185843968132476 0.8185843968132476 0.8321570069272992 0.8321570069272992 0.8321570069272992 0.8321570069272992 0.8424229992561834 0.8424229992561834 
0.8424229992561834 0.8424229992561834 0.8493332128858053 0.8493332128858053 0.8493332128858053 0.8493332128858053 0.8528631774518647 0.8528631774518647 0.8528631774518647 
0.8528631774518647 0.8530086567022763 0.8530086567022763 0.8530086567022763 0.8530086567022763 0.8497802957421589 0.8497802957421589 0.8497802957421589 0.8497802957421589 
0.8431996142927947 0.8431996142927947 0.8431996142927947 0.8431996142927947 0.8332973633624021 0.8332973633624021 0.8332973633624021 0.8332973633624021 0.8201136466580554 
0.8201136466580554 0.8201136466580554 0.8201136466580554 0.803698970607069 0.803698970607069 0.803698970607069 0.803698970607069 0.7841154905441595 0.7841154905441595 
0.7841154905441595 0.7841154905441595 0.7614380219349799 0.7614380219349799 0.7614380219349799 0.7614380219349799 0.7357544745157842 0.7357544745157842 0.7357544745157842 
0.7357544745157842 0.7071656556629692 0.7071656556629692 0.7071656556629692 0.7071656556629692 0.6757846165464302 0.6757846165464302 0.6757846165464302 0.6757846165464302 
0.641735790680482 0.641735790680482 0.641735790680482 0.641735790680482 0.605154140705096 0.605154140705096 0.605154140705096 0.605154140705096 0.5661844220260267 