Title = Result/Post/Linear_Advection_2D/FVM/MLP_u1_Least_Square/Sine_Wave_2D/Quad100/
FileType = Solution
Variables = q
Zone T = Result/Post/Linear_Advection_2D/FVM/MLP_u1_Least_Square/Sine_Wave_2D/Quad100/
ZoneType = FETriangle
Nodes = 40000
Elements = 20000
DataPacking = Block
StrandID = 19
SolutionTime = 1.8
0.6094962707736264 0.6094962707736264 0.6094962707736264 0.6094962707736264 0.6150904819231604 0.6150904819231604 0.6150904819231604 0.6150904819231604 0.6215804433488409 0.6215804433488409 
0.6215804433488409 0.6215804433488409 0.6264479586205334 0.6264479586205334 0.6264479586205334 0.6264479586205334 0.6290354195184398 0.6290354195184398 0.6290354195184398 
0.6290354195184398 0.6291768022243045 0.6291768022243045 0.6291768022243045 0.6291768022243045 0.6268370651448236 0.6268370651448236 0.6268370651448236 0.6268370651448236 
0.6220177790154838 0.6220177790154838 0.6220177790154838 0.6220177790154838 0.614740966051404 0.614740966051404 0.614740966051404 0.614740966051404 0.6050389228671019 
0.6050389228671019 0.6050389228671019 0.6050389228671019 0.5929523178899151 0.5929523178899151 0.5929523178899151 0.5929523178899151 0.5785295675250944 0.5785295675250944 
0.5785295675250944 0.5785295675250944 0.5618270748618462 0.5618270748618462 0.5618270748618462 0.5618270748618462 0.5429095359546334 0.5429095359546334 0.5429095359546334 
0.5429095359546334 0.5218502720384277 0.5218502720384277 0.5218502720384277 0.5218502720384277 0.498731348778587 0.498731348778587 0.498731348778587 0.498731348778587 
0.4736434410827227 0.4736434410827227 0.4736434410827227 0.4736434410827227 0.4466854490645767 0.4466854490645767 0.4466854490645767 0.4466854490645767 0.4179639535368802 
0.4179639535368802 0.4179639535368802 0.4179639535368802 0.3875926106010346 0.3875926106010346 0.3875926106010346 0.3875926106010346 0.3556915618118635 0.3556915618118635 
0.3556915618118635 0.3556915618118635 0.322386892778726 0.322386892778726 0.322386892778726 0.322386892778726 0.2878101308312272 0.2878101308312272 0.2878101308312272 
0.2878101308312272 0.2520977478976539 0.2520977478976539 0.2520977478976539 0.2520977478976539 0.2153906368244395 0.2153906368244395 0.2153906368244395 0.2153906368244395 
0.1778335547720579 0.1778335547720579 0.1778335547720579 0.1778335547720579 0.1395745565786228 0.1395745565786228 0.1395745565786228 0.1395745565786228 0.1007644488698602 
0.1007644488698602 0.1007644488698602 0.1007644488698602 0.06155627132028696 0.06155627132028696 0.06155627132028696 0.06155627132028696 0.02210477189387002 0.02210477189387002 
0.02210477189387002 0.02210477189387002 -0.01743417703889696 -0.01743417703889696 -0.01743417703889696 -0.01743417703889696 -0.05690425183695117 -0.05690425183695117 -0.05690425183695117 
-0.05690425183695117 -0.09614941580315314 -0.09614941580315314 -0.09614941580315314 -0.09614941580315314 -0.1350146528153464 -0.1350146528153464 -0.1350146528153464 -0.1350146528153464 
-0.1733466261093768 -0.1733466261093768 -0.1733466261093768 -0.1733466261093768 -0.2109942377314681 -0.2109942377314681 -0.2109942377314681 -0.2109942377314681 -0.247809122196315 
-0.247809122196315 -0.247809122196315 -0.247809122196315 -0.283646136912914 -0.283646136912914 -0.283646136912914 -0.283646136912914 -0.3183638958941096 -0.3183638958941096 
-0.3183638958941096 -0.3183638958941096 -0.3518253501571596 -0.3518253501571596 -0.3518253501571596 -0.3518253501571596 -0.3838983815779495 -0.3838983815779495 -0.3838983815779495 
-0.3838983815779495 -0.4144563688110463 -0.4144563688110463 -0.4144563688110463 -0.4144563688110463 -0.4433787018261256 -0.4433787018261256 -0.4433787018261256 -0.4433787018261256 
-0.4705512466657988 -0.4705512466657988 -0.4705512466657988 -0.4705512466657988 -0.4958667762290627 -0.4958667762290627 -0.4958667762290627 -0.4958667762290627 -0.5192253811389123 
-0.5192253811389123 -0.5192253811389123 -0.5192253811389123 -0.5405348638232997 -0.5405348638232997 -0.5405348638232997 -0.5405348638232997 -0.5597111090394968 -0.5597111090394968 
-0.5597111090394968 -0.5597111090394968 -0.5766784223173258 -0.5766784223173258 -0.5766784223173258 -0.5766784223173258 -0.5913698329226074 -0.5913698329226074 -0.5913698329226074 
-0.5913698329226074 -0.6037273678474389 -0.6037273678474389 -0.6037273678474389 -0.6037273678474389 -0.6137023028468862 -0.6137023028468862 -0.6137023028468862 -0.6137023028468862 
-0.6212553371102846 -0.6212553371102846 -0.6212553371102846 -0.6212553371102846 -0.6263566469969584 -0.6263566469969584 -0.6263566469969584 -0.6263566469969584 -0.6289851737760689 
-0.6289851737760689 -0.6289851737760689 -0.6289851737760689 -0.6291312266498864 -0.6291312266498864 -0.6291312266498864 -0.6291312266498864 -0.6267961852574149 -0.6267961852574149 
-0.6267961852574149 -0.6267961852574149 -0.6219867444429419 -0.6219867444429419 -0.6219867444429419 -0.6219867444429419 -0.6147223715954468 -0.6147223715954468 -0.6147223715954468 
-0.6147223715954468 -0.6050318704646513 -0.6050318704646513 -0.6050318704646513 -0.6050318704646513 -0.5929535129493096 -0.5929535129493096 -0.5929535129493096 -0.5929535129493096 
-0.5785347778151635 -0.5785347778151635 -0.5785347778151635 -0.5785347778151635 -0.5618323288910878 -0.5618323288910878 -0.5618323288910878 -0.5618323288910878 -0.5429118740720418 
-0.5429118740720418 -0.5429118740720418 -0.5429118740720418 -0.5218481686047323 -0.5218481686047323 -0.5218481686047323 -0.5218481686047323 -0.4987251357012288 -0.4987251357012288 
-0.4987251357012288 -0.4987251357012288 -0.4736361724157854 -0.4736361724157854 -0.4736361724157854 -0.4736361724157854 -0.4466845887728839 -0.4466845887728839 -0.4466845887728839 
-0.4466845887728839 -0.4179840495093528 -0.4179840495093528 -0.4179840495093528 -0.4179840495093528 -0.3876587690722485 -0.3876587690722485 -0.3876587690722485 -0.3876587690722485 
-0.3558431173803207 -0.3558431173803207 -0.3558431173803207 -0.3558431173803207 -0.3226802631659946 -0.3226802631659946 -0.3226802631659946 -0.3226802631659946 -0.2883195608340715 
-0.2883195608340715 -0.2883195608340715 -0.2883195608340715 -0.2529126052717466 -0.2529126052717466 -0.2529126052717466 -0.2529126052717466 -0.2166082271659971 -0.2166082271659971 
-0.2166082271659971 -0.2166082271659971 -0.1795471196406296 -0.1795471196406296 -0.1795471196406296 -0.1795471196406296 -0.1418571657603027 -0.1418571657603027 -0.1418571657603027 
-0.1418571657603027 -0.1036507385458111 -0.1036507385458111 -0.1036507385458111 -0.1036507385458111 -0.06502514524376249 -0.06502514524376249 -0.06502514524376249 -0.06502514524376249 
-0.02606692073357861 -0.02606692073357861 -0.02606692073357861 -0.02606692073357861 0.01314012279963725 0.01314012279963725 0.01314012279963725 0.01314012279963725 0.05250415884526911 
0.05250415884526911 0.05250415884526911 0.05250415884526911 0.09191389884500306 0.09191389884500306 0.09191389884500306 0.09191389884500306 0.1312289699048994 0.1312289699048994 
0.1312289699048994 0.1312289699048994 0.1702746373537731 0.1702746373537731 0.1702746373537731 0.1702746373537731 0.2088427062193498 0.2088427062193498 0.2088427062193498 
0.2088427062193498 0.246699178045465 0.246699178045465 0.246699178045465 0.246699178045465 0.2835976893766147 0.2835976893766147 0.2835976893766147 0.2835976893766147 
0.3192963217978955 0.3192963217978955 0.3192963217978955 0.3192963217978955 0.3535744383002136 0.3535744383002136 0.3535744383002136 0.3535744383002136 0.3862461236693047 
0.3862461236693047 0.3862461236693047 0.3862461236693047 0.4171674284181032 0.4171674284181032 0.4171674284181032 0.4171674284181032 0.4462364380477167 0.4462364380477167 
0.4462364380477167 0.4462364380477167 0.4733861421078173 0.4733861421078173 0.4733861421078173 0.4733861421078173 0.4985716047507927 0.4985716047507927 0.4985716047507927 
0.4985716047507927 0.5217688150467858 0.5217688150467858 0.5217688150467858 0.5217688150467858 0.5428768161135964 0.5428768161135964 0.5428768161135964 0.5428768161135964 
0.5622159414651745 0.5622159414651745 0.5622159414651745 0.5622159414651745 0.5777695009427672 0.5777695009427672 0.5777695009427672 0.5777695009427672 0.5994966640017834 
0.5994966640017834 0.5994966640017834 0.5994966640017834 0.6371055836138608 0.6371055836138608 0.6371055836138608 0.6371055836138608 0.642860252703515 0.642860252703515 
0.642860252703515 0.642860252703515 0.6496585336354435 0.6496585336354435 0.6496585336354435 0.6496585336354435 0.65476436531075 0.65476436531075 0.65476436531075 
0.65476436531075 0.6574828612863097 0.6574828612863097 0.6574828612863097 0.6574828612863097 0.6576380303221421 0.6576380303221421 0.6576380303221421 0.6576380303221421 
0.6551939969485264 0.6551939969485264 0.6551939969485264 0.6551939969485264 0.6501568025297132 0.6501568025297132 0.6501568025297132 0.6501568025297132 0.6425501708792718 
0.6425501708792718 0.6425501708792718 0.6425501708792718 0.6324086600720539 0.6324086600720539 0.6324086600720539 0.6324086600720539 0.619775000541118 0.619775000541118 
0.619775000541118 0.619775000541118 0.6046998277407604 0.6046998277407604 0.6046998277407604 0.6046998277407604 0.5872419889011931 0.5872419889011931 0.5872419889011931 
0.5872419889011931 0.5674689954503652 0.5674689954503652 0.5674689954503652 0.5674689954503652 0.5454573972303873 0.5454573972303873 0.5454573972303873 0.5454573972303873 
0.5212929243079267 0.5212929243079267 0.5212929243079267 0.5212929243079267 0.4950703411715943 0.4950703411715943 0.4950703411715943 0.4950703411715943 0.466893033403752 
0.466893033403752 0.466893033403752 0.466893033403752 0.436872424388047 0.436872424388047 0.436872424388047 0.436872424388047 0.4051273313370666 0.4051273313370666 
0.4051273313370666 0.4051273313370666 0.371783342902421 0.371783342902421 0.371783342902421 0.371783342902421 0.3369722518662389 0.3369722518662389 0.3369722518662389 
0.3369722518662389 0.3008315316883119 0.3008315316883119 0.3008315316883119 0.3008315316883119 0.2635038203085497 0.2635038203085497 0.2635038203085497 0.2635038203085497 
0.2251363769923532 0.2251363769923532 0.2251363769923532 0.2251363769923532 0.1858805040273025 0.1858805040273025 0.1858805040273025 0.1858805040273025 0.145890955393927 
0.145890955393927 0.145890955393927 0.145890955393927 0.1053253637891859 0.1053253637891859 0.1053253637891859 0.1053253637891859 0.06434369402931805 0.06434369402931805 
0.06434369402931805 0.06434369402931805 0.02310769114594483 0.02310769114594483 0.02310769114594483 0.02310769114594483 -0.01821972974694546 -0.01821972974694546 -0.01821972974694546 
-0.01821972974694546 -0.05947518316663062 -0.05947518316663062 -0.05947518316663062 -0.05947518316663062 -0.1004955798112398 -0.1004955798112398 -0.1004955798112398 -0.1004955798112398 
-0.141118890450367 -0.141118890450367 -0.141118890450367 -0.141118890450367 -0.18118483540787 -0.18118483540787 -0.18118483540787 -0.18118483540787 -0.2205354730956958 
-0.2205354730956958 -0.2205354730956958 -0.2205354730956958 -0.2590157200738329 -0.2590157200738329 -0.2590157200738329 -0.2590157200738329 -0.296473865813185 -0.296473865813185 
-0.296473865813185 -0.296473865813185 -0.332762130242417 -0.332762130242417 -0.332762130242417 -0.332762130242417 -0.3677372686199976 -0.3677372686199976 -0.3677372686199976 
-0.3677372686199976 -0.4012611903726846 -0.4012611903726846 -0.4012611903726846 -0.4012611903726846 -0.4332015494371678 -0.4332015494371678 -0.4332015494371678 -0.4332015494371678 
-0.4634322816098171 -0.4634322816098171 -0.4634322816098171 -0.4634322816098171 -0.4918340902522608 -0.4918340902522608 -0.4918340902522608 -0.4918340902522608 -0.5182948966492682 
-0.5182948966492682 -0.5182948966492682 -0.5182948966492682 -0.5427102696651687 -0.5427102696651687 -0.5427102696651687 -0.5427102696651687 -0.5649838378702156 -0.5649838378702156 
-0.5649838378702156 -0.5649838378702156 -0.5850276770542778 -0.5850276770542778 -0.5850276770542778 -0.5850276770542778 -0.6027626650940581 -0.6027626650940581 -0.6027626650940581 
-0.6027626650940581 -0.618118802404407 -0.618118802404407 -0.618118802404407 -0.618118802404407 -0.6310355026353214 -0.6310355026353214 -0.6310355026353214 -0.6310355026353214 
-0.6414618442439409 -0.6414618442439409 -0.6414618442439409 -0.6414618442439409 -0.6493567106156083 -0.6493567106156083 -0.6493567106156083 -0.6493567106156083 -0.6546887802298567 
-0.6546887802298567 -0.6546887802298567 -0.6546887802298567 -0.6574366205936235 -0.6574366205936235 -0.6574366205936235 -0.6574366205936235 -0.6575899345809924 -0.6575899345809924 
-0.6575899345809924 -0.6575899345809924 -0.6551487030152531 -0.6551487030152531 -0.6551487030152531 -0.6551487030152531 -0.6501219965007778 -0.6501219965007778 -0.6501219965007778 
-0.6501219965007778 -0.6425292588534612 -0.6425292588534612 -0.6425292588534612 -0.6425292588534612 -0.6324006201961994 -0.6324006201961994 -0.6324006201961994 -0.6324006201961994 
-0.6197760609828343 -0.6197760609828343 -0.6197760609828343 -0.6197760609828343 -0.6047052583803818 -0.6047052583803818 -0.6047052583803818 -0.6047052583803818 -0.5872474393895648 
-0.5872474393895648 -0.5872474393895648 -0.5872474393895648 -0.5674712848292232 -0.5674712848292232 -0.5674712848292232 -0.5674712848292232 -0.5454549246658623 -0.5454549246658623 
-0.5454549246658623 -0.5454549246658623 -0.5212860708721474 -0.5212860708721474 -0.5212860708721474 -0.5212860708721474 -0.4950623347925883 -0.4950623347925883 -0.4950623347925883 
-0.4950623347925883 -0.4668916851579342 -0.4668916851579342 -0.4668916851579342 -0.4668916851579342 -0.4368929109746139 -0.4368929109746139 -0.4368929109746139 -0.4368929109746139 
-0.4051958291508615 -0.4051958291508615 -0.4051958291508615 -0.4051958291508615 -0.3719408792560606 -0.3719408792560606 -0.3719408792560606 -0.3719408792560606 -0.3372777139659531 
-0.3372777139659531 -0.3372777139659531 -0.3372777139659531 -0.301362475812431 -0.301362475812431 -0.301362475812431 -0.301362475812431 -0.26435367805082 -0.26435367805082 
-0.26435367805082 -0.26435367805082 -0.2264069711821904 -0.2264069711821904 -0.2264069711821904 -0.2264069711821904 -0.1876695147440908 -0.1876695147440908 -0.1876695147440908 
-0.1876695147440908 -0.1482750721511561 -0.1482750721511561 -0.1482750721511561 -0.1482750721511561 -0.1083411608371728 -0.1083411608371728 -0.1083411608371728 -0.1083411608371728 
-0.06796948880295989 -0.06796948880295989 -0.06796948880295989 -0.06796948880295989 -0.02725042277299456 -0.02725042277299456 -0.02725042277299456 -0.02725042277299456 0.01372860090304517 
0.01372860090304517 0.01372860090304517 0.01372860090304517 0.05487183477509362 0.05487183477509362 0.05487183477509362 0.05487183477509362 0.09606321475318805 0.09606321475318805 
0.09606321475318805 0.09606321475318805 0.1371562483294483 0.1371562483294483 0.1371562483294483 0.1371562483294483 0.1779684423215568 0.1779684423215568 0.1779684423215568 
0.1779684423215568 0.2182822019714744 0.2182822019714744 0.2182822019714744 0.2182822019714744 0.2578528170342759 0.2578528170342759 0.2578528170342759 0.2578528170342759 
0.2964225242495996 0.2964225242495996 0.2964225242495996 0.2964225242495996 0.3337381258188092 0.3337381258188092 0.3337381258188092 0.3337381258188092 0.3695686566454932 
0.3695686566454932 0.3695686566454932 0.3695686566454932 0.4037195080947769 0.4037195080947769 0.4037195080947769 0.4037195080947769 0.4360400572049517 0.4360400572049517 
0.4360400572049517 0.4360400572049517 0.4664237765195501 0.4664237765195501 0.4664237765195501 0.4664237765195501 0.4948007711486611 0.4948007711486611 0.4948007711486611 
0.4948007711486611 0.5211242430722995 0.5211242430722995 0.5211242430722995 0.5211242430722995 0.5453699890422995 0.5453699890422995 0.5453699890422995 0.5453699890422995 
0.5674292299294887 0.5674292299294887 0.5674292299294887 0.5674292299294887 0.5876551618578045 0.5876551618578045 0.5876551618578045 0.5876551618578045 0.603858940359802 
0.603858940359802 0.603858940359802 0.603858940359802 0.6266820425252709 0.6266820425252709 0.6266820425252709 0.6266820425252709 0.6761220483208144 0.6761220483208144 
0.6761220483208144 0.6761220483208144 0.6822127119179503 0.6822127119179503 0.6822127119179503 0.6822127119179503 0.6894021816286285 0.6894021816286285 0.6894021816286285 
0.6894021816286285 0.6948141329760082 0.6948141329760082 0.6948141329760082 0.6948141329760082 0.6977024873986989 0.6977024873986989 0.6977024873986989 0.6977024873986989 
0.6978736156999231 0.6978736156999231 0.6978736156999231 0.6978736156999231 0.6952851659694697 0.6952851659694697 0.6952851659694697 0.6952851659694697 0.6899426552295821 
0.6899426552295821 0.6899426552295821 0.6899426552295821 0.6818717119751098 0.6818717119751098 0.6818717119751098 0.6818717119751098 0.6711095886499636 0.6711095886499636 
0.6711095886499636 0.6711095886499636 0.657702339498935 0.657702339498935 0.657702339498935 0.657702339498935 0.641704197136894 0.641704197136894 0.641704197136894 
0.641704197136894 0.6231778322028432 0.6231778322028432 0.6231778322028432 0.6231778322028432 0.6021949097870415 0.6021949097870415 0.6021949097870415 0.6021949097870415 
0.5788365741717674 0.5788365741717674 0.5788365741717674 0.5788365741717674 0.5531936874799354 0.5531936874799354 0.5531936874799354 0.5531936874799354 0.5253667255192335 
0.5253667255192335 0.5253667255192335 0.5253667255192335 0.4954653577871605 0.4954653577871605 0.4954653577871605 0.4954653577871605 0.4636078221734053 0.4636078221734053 
0.4636078221734053 0.4636078221734053 0.4299202251058588 0.4299202251058588 0.4299202251058588 0.4299202251058588 0.3945358650615643 0.3945358650615643 0.3945358650615643 
0.3945358650615643 0.3575946199193465 0.3575946199193465 0.3575946199193465 0.3575946199193465 0.3192423869531889 0.3192423869531889 0.3192423869531889 0.3192423869531889 
0.2796305354606182 0.2796305354606182 0.2796305354606182 0.2796305354606182 0.2389153339640494 0.2389153339640494 0.2389153339640494 0.2389153339640494 0.1972573409422667 
0.1972573409422667 0.1972573409422667 0.1972573409422667 0.1548207799816756 0.1548207799816756 0.1548207799816756 0.1548207799816756 0.1117729310440104 0.1117729310440104 
0.1117729310440104 0.1117729310440104 0.06828354703713937 0.06828354703713937 0.06828354703713937 0.06828354703713937 0.02452426486786333 0.02452426486786333 0.02452426486786333 
0.02452426486786333 -0.01933204217388388 -0.01933204217388388 -0.01933204217388388 -0.01933204217388388 -0.06311200312094664 -0.06311200312094664 -0.06311200312094664 -0.06311200312094664 
-0.1066425571175502 -0.1066425571175502 -0.1066425571175502 -0.1066425571175502 -0.1497517601361352 -0.1497517601361352 -0.1497517601361352 -0.1497517601361352 -0.1922695169055159 
-0.1922695169055159 -0.1922695169055159 -0.1922695169055159 -0.2340282095017198 -0.2340282095017198 -0.2340282095017198 -0.2340282095017198 -0.2748632544124317 -0.2748632544124317 
-0.2748632544124317 -0.2748632544124317 -0.3146136522429185 -0.3146136522429185 -0.3146136522429185 -0.3146136522429185 -0.3531225798121208 -0.3531225798121208 -0.3531225798121208 
-0.3531225798121208 -0.3902380301455466 -0.3902380301455466 -0.3902380301455466 -0.3902380301455466 -0.4258134666266561 -0.4258134666266561 -0.4258134666266561 -0.4258134666266561 
-0.4597084476020586 -0.4597084476020586 -0.4597084476020586 -0.4597084476020586 -0.4917891958815122 -0.4917891958815122 -0.4917891958815122 -0.4917891958815122 -0.5219291142695608 
-0.5219291142695608 -0.5219291142695608 -0.5219291142695608 -0.5500092639084732 -0.5500092639084732 -0.5500092639084732 -0.5500092639084732 -0.5759188205763291 -0.5759188205763291 
-0.5759188205763291 -0.5759188205763291 -0.5995555122421004 -0.5995555122421004 -0.5995555122421004 -0.5995555122421004 -0.620826031021694 -0.620826031021694 -0.620826031021694 
-0.620826031021694 -0.6396464121189381 -0.6396464121189381 -0.6396464121189381 -0.6396464121189381 -0.6559423771555369 -0.6559423771555369 -0.6559423771555369 -0.6559423771555369 
-0.6696496381537214 -0.6696496381537214 -0.6696496381537214 -0.6696496381537214 -0.6807141421333402 -0.6807141421333402 -0.6807141421333402 -0.6807141421333402 -0.6890922132166151 
-0.6890922132166151 -0.6890922132166151 -0.6890922132166151 -0.6947506341802951 -0.6947506341802951 -0.6947506341802951 -0.6947506341802951 -0.6976669066970296 -0.6976669066970296 
-0.6976669066970296 -0.6976669066970296 -0.6978298781807786 -0.6978298781807786 -0.6978298781807786 -0.6978298781807786 -0.6952392452104481 -0.6952392452104481 -0.6952392452104481 
-0.6952392452104481 -0.689904947582378 -0.689904947582378 -0.689904947582378 -0.689904947582378 -0.6818477880847396 -0.6818477880847396 -0.6818477880847396 -0.6818477880847396 
-0.6710995256060839 -0.6710995256060839 -0.6710995256060839 -0.6710995256060839 -0.6577025634289374 -0.6577025634289374 -0.6577025634289374 -0.6577025634289374 -0.6417096452299113 
-0.6417096452299113 -0.6417096452299113 -0.6417096452299113 -0.623183637044975 -0.623183637044975 -0.623183637044975 -0.623183637044975 -0.6021974308850343 -0.6021974308850343 
-0.6021974308850343 -0.6021974308850343 -0.5788339349833151 -0.5788339349833151 -0.5788339349833151 -0.5788339349833151 -0.5531862245250465 -0.5531862245250465 -0.5531862245250465 
-0.5531862245250465 -0.52535787683005 -0.52535787683005 -0.52535787683005 -0.52535787683005 -0.4954634564271848 -0.4954634564271848 -0.4954634564271848 -0.4954634564271848 
-0.463629005270098 -0.463629005270098 -0.463629005270098 -0.463629005270098 -0.4299922649564212 -0.4299922649564212 -0.4299922649564212 -0.4299922649564212 -0.3947022520181798 
-0.3947022520181798 -0.3947022520181798 -0.3947022520181798 -0.3579177703592429 -0.3579177703592429 -0.3579177703592429 -0.3579177703592429 -0.3198045309060366 -0.3198045309060366 
-0.3198045309060366 -0.3198045309060366 -0.2805307882862179 -0.2805307882862179 -0.2805307882862179 -0.2805307882862179 -0.2402617896510935 -0.2402617896510935 -0.2402617896510935 
-0.2402617896510935 -0.1991537958971329 -0.1991537958971329 -0.1991537958971329 -0.1991537958971329 -0.157348859826925 -0.157348859826925 -0.157348859826925 -0.157348859826925 
-0.1149717764105324 -0.1149717764105324 -0.1149717764105324 -0.1149717764105324 -0.07213051656562938 -0.07213051656562938 -0.07213051656562938 -0.07213051656562938 -0.02892094318101191 
-0.02892094318101191 -0.02892094318101191 -0.02892094318101191 0.01456427600274123 0.01456427600274123 0.01456427600274123 0.01456427600274123 0.05822373180074928 0.05822373180074928 
0.05822373180074928 0.05822373180074928 0.1019345037999311 0.1019345037999311 0.1019345037999311 0.1019345037999311 0.1455413817692428 0.1455413817692428 0.1455413817692428 
0.1455413817692428 0.1888508960610791 0.1888508960610791 0.1888508960610791 0.1888508960610791 0.2316322211918607 0.2316322211918607 0.2316322211918607 0.2316322211918607 
0.2736256202273913 0.2736256202273913 0.2736256202273913 0.2736256202273913 0.3145573677429438 0.3145573677429438 0.3145573677429438 0.3145573677429438 0.3541584794573154 
0.3541584794573154 0.3541584794573154 0.3541584794573154 0.3921835202850171 0.3921835202850171 0.3921835202850171 0.3921835202850171 0.4284256648642567 0.4284256648642567 
0.4284256648642567 0.4284256648642567 0.4627248600095553 0.4627248600095553 0.4627248600095553 0.4627248600095553 0.4949679866150918 0.4949679866150918 0.4949679866150918 
0.4949679866150918 0.5250809458012815 0.5250809458012815 0.5250809458012815 0.5250809458012815 0.5530142828012983 0.5530142828012983 0.5530142828012983 0.5530142828012983 
0.5787425419758573 0.5787425419758573 0.5787425419758573 0.5787425419758573 0.6021508069725997 0.6021508069725997 0.6021508069725997 0.6021508069725997 0.6236122557949363 
0.6236122557949363 0.6236122557949363 0.6236122557949363 0.640816145574081 0.640816145574081 0.640816145574081 0.640816145574081 0.6650117080961117 0.6650117080961117 
0.6650117080961117 0.6650117080961117 0.7158244370780562 0.7158244370780562 0.7158244370780562 0.7158244370780562 0.7222827603396788 0.7222827603396788 0.7222827603396788 
0.7222827603396788 0.729889654171279 0.729889654171279 0.729889654171279 0.729889654171279 0.7356092260896913 0.7356092260896913 0.7356092260896913 0.7356092260896913 
0.7386611781075049 0.7386611781075049 0.7386611781075049 0.7386611781075049 0.7388414568343609 0.7388414568343609 0.7388414568343609 0.7388414568343609 0.7361031874977646 
0.7361031874977646 0.7361031874977646 0.7361031874977646 0.730450086420837 0.730450086420837 0.730450086420837 0.730450086420837 0.7219078270955351 0.7219078270955351 
0.7219078270955351 0.7219078270955351 0.7105152352288431 0.7105152352288431 0.7105152352288431 0.7105152352288431 0.6963211543303417 0.6963211543303417 0.6963211543303417 
0.6963211543303417 0.6793834106933303 0.6793834106933303 0.6793834106933303 0.6793834106933303 0.6597687967274757 0.6597687967274757 0.6597687967274757 0.6597687967274757 
0.6375534823741262 0.6375534823741262 0.6375534823741262 0.6375534823741262 0.6128234981032634 0.6128234981032634 0.6128234981032634 0.6128234981032634 0.5856750304259788 
0.5856750304259788 0.5856750304259788 0.5856750304259788 0.556214378723468 0.556214378723468 0.556214378723468 0.556214378723468 0.524557567396961 0.524557567396961 
0.524557567396961 0.524557567396961 0.4908297148834132 0.4908297148834132 0.4908297148834132 0.4908297148834132 0.455164301098219 0.455164301098219 0.455164301098219 
0.455164301098219 0.4177024458228114 0.4177024458228114 0.4177024458228114 0.4177024458228114 0.3785922497802031 0.3785922497802031 0.3785922497802031 0.3785922497802031 
0.3379881920305498 0.3379881920305498 0.3379881920305498 0.3379881920305498 0.296050544008938 0.296050544008938 0.296050544008938 0.296050544008938 0.2529447605080763 
0.2529447605080763 0.2529447605080763 0.2529447605080763 0.2088408348814317 0.2088408348814317 0.2088408348814317 0.2088408348814317 0.1639126385014877 0.1639126385014877 
0.1639126385014877 0.1639126385014877 0.1183372761356584 0.1183372761356584 0.1183372761356584 0.1183372761356584 0.07229446662049922 0.07229446662049922 0.07229446662049922 
0.07229446662049922 0.02596591772354471 0.02596591772354471 0.02596591772354471 0.02596591772354471 -0.02046535893331568 -0.02046535893331568 -0.02046535893331568 -0.02046535893331568 
-0.06681582637221817 -0.06681582637221817 -0.06681582637221817 -0.06681582637221817 -0.1129022723284032 -0.1129022723284032 -0.1129022723284032 -0.1129022723284032 -0.158542659483402 
-0.158542659483402 -0.158542659483402 -0.158542659483402 -0.2035569000421814 -0.2035569000421814 -0.2035569000421814 -0.2035569000421814 -0.247767524440477 -0.247767524440477 
-0.247767524440477 -0.247767524440477 -0.2910002757790747 -0.2910002757790747 -0.2910002757790747 -0.2910002757790747 -0.3330846953163569 -0.3330846953163569 -0.3330846953163569 
-0.3330846953163569 -0.3738547502488153 -0.3738547502488153 -0.3738547502488153 -0.3738547502488153 -0.4131495099293316 -0.4131495099293316 -0.4131495099293316 -0.4131495099293316 
-0.4508138362209973 -0.4508138362209973 -0.4508138362209973 -0.4508138362209973 -0.4866990430799608 -0.4866990430799608 -0.4866990430799608 -0.4866990430799608 -0.5206634988786147 
-0.5206634988786147 -0.5206634988786147 -0.5206634988786147 -0.5525731724402239 -0.5525731724402239 -0.5525731724402239 -0.5525731724402239 -0.5823021399645285 -0.5823021399645285 
-0.5823021399645285 -0.5823021399645285 -0.6097330684304487 -0.6097330684304487 -0.6097330684304487 -0.6097330684304487 -0.6347576790921657 -0.6347576790921657 -0.6347576790921657 
-0.6347576790921657 -0.6572771845784035 -0.6572771845784035 -0.6572771845784035 -0.6572771845784035 -0.6772026918602678 -0.6772026918602678 -0.6772026918602678 -0.6772026918602678 
-0.6944555657840829 -0.6944555657840829 -0.6944555657840829 -0.6944555657840829 -0.7089677431935044 -0.7089677431935044 -0.7089677431935044 -0.7089677431935044 -0.7206819793054375 
-0.7206819793054375 -0.7206819793054375 -0.7206819793054375 -0.7295520144661094 -0.7295520144661094 -0.7295520144661094 -0.7295520144661094 -0.7355427242020658 -0.7355427242020658 
-0.7355427242020658 -0.7355427242020658 -0.7386304099603231 -0.7386304099603231 -0.7386304099603231 -0.7386304099603231 -0.7388031223598693 -0.7388031223598693 -0.7388031223598693 
-0.7388031223598693 -0.7360603730697252 -0.7360603730697252 -0.7360603730697252 -0.7360603730697252 -0.730412884207126 -0.730412884207126 -0.730412884207126 -0.730412884207126 
-0.7218827452422381 -0.7218827452422381 -0.7218827452422381 -0.7218827452422381 -0.7105035132966429 -0.7105035132966429 -0.7105035132966429 -0.7105035132966429 -0.6963200431360501 
-0.6963200431360501 -0.6963200431360501 -0.6963200431360501 -0.6793881679680867 -0.6793881679680867 -0.6793881679680867 -0.6793881679680867 -0.6597744644883775 -0.6597744644883775 
-0.6597744644883775 -0.6597744644883775 -0.6375561153855689 -0.6375561153855689 -0.6375561153855689 -0.6375561153855689 -0.6128209003962032 -0.6128209003962032 -0.6128209003962032 
-0.6128209003962032 -0.5856673590080377 -0.5856673590080377 -0.5856673590080377 -0.5856673590080377 -0.5562051460957912 -0.5562051460957912 -0.5562051460957912 -0.5562051460957912 
-0.5245555448056614 -0.5245555448056614 -0.5245555448056614 -0.5245555448056614 -0.4908519835269145 -0.4908519835269145 -0.4908519835269145 -0.4908519835269145 -0.4552402714432434 
-0.4552402714432434 -0.4552402714432434 -0.4552402714432434 -0.4178781522858733 -0.4178781522858733 -0.4178781522858733 -0.4178781522858733 -0.378933736389621 -0.378933736389621 
-0.378933736389621 -0.378933736389621 -0.3385824605976469 -0.3385824605976469 -0.3385824605976469 -0.3385824605976469 -0.2970024781927942 -0.2970024781927942 -0.2970024781927942 
-0.2970024781927942 -0.2543687879065849 -0.2543687879065849 -0.2543687879065849 -0.2543687879065849 -0.2108469032849651 -0.2108469032849651 -0.2108469032849651 -0.2108469032849651 
-0.1665873139498323 -0.1665873139498323 -0.1665873139498323 -0.1665873139498323 -0.1217222368697546 -0.1217222368697546 -0.1217222368697546 -0.1217222368697546 -0.07636604921631521 