Title = Result/Post/Linear_Advection_2D/FVM/MLP_u1_Least_Square/Sine_Wave_2D/Quad100/
FileType = Solution
Variables = q
Zone T = Result/Post/Linear_Advection_2D/FVM/MLP_u1_Least_Square/Sine_Wave_2D/Quad100/
ZoneType = FETriangle
Nodes = 40000
Elements = 20000
DataPacking = Block
StrandID = 21
SolutionTime = 2
0.002374168166031171 0.002374168166031171 0.002374168166031171 0.002374168166031171 0.004605305429809779 0.004605305429809779 0.004605305429809779 0.004605305429809779 0.007664184527424411 0.007664184527424411 
0.007664184527424411 0.007664184527424411 0.01066814077658662 0.01066814077658662 0.01066814077658662 0.01066814077658662 0.01402722052531378 0.01402722052531378 0.01402722052531378 
0.01402722052531378 0.0173176525755946 0.0173176525755946 0.0173176525755946 0.0173176525755946 0.02028898541476524 0.02028898541476524 0.02028898541476524 0.02028898541476524 
0.02323154731650432 0.02323154731650432 0.02323154731650432 0.02323154731650432 0.02611912788682213 0.02611912788682213 0.02611912788682213 0.02611912788682213 0.02890879235004504 
0.02890879235004504 0.02890879235004504 0.02890879235004504 0.03157294263192713 0.03157294263192713 0.03157294263192713 0.03157294263192713 0.03409811374572084 0.03409811374572084 
0.03409811374572084 0.03409811374572084 0.03647784424604629 0.03647784424604629 0.03647784424604629 0.03647784424604629 0.03870406171543015 0.03870406171543015 0.03870406171543015 
0.03870406171543015 0.04077117994951651 0.04077117994951651 0.04077117994951651 0.04077117994951651 0.04267444148232712 0.04267444148232712 0.04267444148232712 0.04267444148232712 
0.04440935630524664 0.04440935630524664 0.04440935630524664 0.04440935630524664 0.04597116824272042 0.04597116824272042 0.04597116824272042 0.04597116824272042 0.04735475918697769 
0.04735475918697769 0.04735475918697769 0.04735475918697769 0.04855480171603446 0.04855480171603446 0.04855480171603446 0.04855480171603446 0.04956603463037888 0.04956603463037888 
0.04956603463037888 0.04956603463037888 0.05038360464667078 0.05038360464667078 0.05038360464667078 0.05038360464667078 0.0510032882447434 0.0510032882447434 0.0510032882447434 
0.0510032882447434 0.05142087927959299 0.05142087927959299 0.05142087927959299 0.05142087927959299 0.05163470607953603 0.05163470607953603 0.05163470607953603 0.05163470607953603 
0.05164513325182513 0.05164513325182513 0.05164513325182513 0.05164513325182513 0.05145278927875724 0.05145278927875724 0.05145278927875724 0.05145278927875724 0.0510572442860872 
0.0510572442860872 0.0510572442860872 0.0510572442860872 0.05045926814948762 0.05045926814948762 0.05045926814948762 0.05045926814948762 0.04966142776350569 0.04966142776350569 
0.04966142776350569 0.04966142776350569 0.04866753018587586 0.04866753018587586 0.04866753018587586 0.04866753018587586 0.04748166993930853 0.04748166993930853 0.04748166993930853 
0.04748166993930853 0.04610853039223839 0.04610853039223839 0.04610853039223839 0.04610853039223839 0.0445535055260713 0.0445535055260713 0.0445535055260713 0.0445535055260713 
0.04282270284429823 0.04282270284429823 0.04282270284429823 0.04282270284429823 0.04092292964616723 0.04092292964616723 0.04092292964616723 0.04092292964616723 0.03886166040301783 
0.03886166040301783 0.03886166040301783 0.03886166040301783 0.03664700540159692 0.03664700540159692 0.03664700540159692 0.03664700540159692 0.03428767609962474 0.03428767609962474 
0.03428767609962474 0.03428767609962474 0.0317929289223321 0.0317929289223321 0.0317929289223321 0.0317929289223321 0.02917255804992985 0.02917255804992985 0.02917255804992985 
0.02917255804992985 0.02643686702616051 0.02643686702616051 0.02643686702616051 0.02643686702616051 0.02359653221463541 0.02359653221463541 0.02359653221463541 0.02359653221463541 
0.02066291433383695 0.02066291433383695 0.02066291433383695 0.02066291433383695 0.01764722213424868 0.01764722213424868 0.01764722213424868 0.01764722213424868 0.01456159488273879 
0.01456159488273879 0.01456159488273879 0.01456159488273879 0.01142083981943841 0.01142083981943841 0.01142083981943841 0.01142083981943841 0.008233419003268032 0.008233419003268032 
0.008233419003268032 0.008233419003268032 0.005011222856309656 0.005011222856309656 0.005011222856309656 0.005011222856309656 0.00177855744900975 0.00177855744900975 0.00177855744900975 
0.00177855744900975 -0.001495218201677808 -0.001495218201677808 -0.001495218201677808 -0.001495218201677808 -0.004736278162326598 -0.004736278162326598 -0.004736278162326598 -0.004736278162326598 
-0.007924887111869235 -0.007924887111869235 -0.007924887111869235 -0.007924887111869235 -0.01107882832305657 -0.01107882832305657 -0.01107882832305657 -0.01107882832305657 -0.01425088814436986 
-0.01425088814436986 -0.01425088814436986 -0.01425088814436986 -0.01738864305374621 -0.01738864305374621 -0.01738864305374621 -0.01738864305374621 -0.0204047480451396 -0.0204047480451396 
-0.0204047480451396 -0.0204047480451396 -0.02332846782884281 -0.02332846782884281 -0.02332846782884281 -0.02332846782884281 -0.02617125358203075 -0.02617125358203075 -0.02617125358203075 
-0.02617125358203075 -0.02891602330961259 -0.02891602330961259 -0.02891602330961259 -0.02891602330961259 -0.03154789931461561 -0.03154789931461561 -0.03154789931461561 -0.03154789931461561 
-0.03405512204927148 -0.03405512204927148 -0.03405512204927148 -0.03405512204927148 -0.03642791550517302 -0.03642791550517302 -0.03642791550517302 -0.03642791550517302 -0.03865694268373915 
-0.03865694268373915 -0.03865694268373915 -0.03865694268373915 -0.04073334718795894 -0.04073334718795894 -0.04073334718795894 -0.04073334718795894 -0.04264891396160395 -0.04264891396160395 
-0.04264891396160395 -0.04264891396160395 -0.04439611215042283 -0.04439611215042283 -0.04439611215042283 -0.04439611215042283 -0.04596804205503961 -0.04596804205503961 -0.04596804205503961 
-0.04596804205503961 -0.04735850490501022 -0.04735850490501022 -0.04735850490501022 -0.04735850490501022 -0.04856205963361419 -0.04856205963361419 -0.04856205963361419 -0.04856205963361419 
-0.04957402271964517 -0.04957402271964517 -0.04957402271964517 -0.04957402271964517 -0.05039046505528996 -0.05039046505528996 -0.05039046505528996 -0.05039046505528996 -0.05100811585058904 
-0.05100811585058904 -0.05100811585058904 -0.05100811585058904 -0.05142354242627221 -0.05142354242627221 -0.05142354242627221 -0.05142354242627221 -0.05163558119770864 -0.05163558119770864 
-0.05163558119770864 -0.05163558119770864 -0.05164480655015601 -0.05164480655015601 -0.05164480655015601 -0.05164480655015601 -0.05145179055533035 -0.05145179055533035 -0.05145179055533035 
-0.05145179055533035 -0.05105599653532365 -0.05105599653532365 -0.05105599653532365 -0.05105599653532365 -0.05045801323618574 -0.05045801323618574 -0.05045801323618574 -0.05045801323618574 
-0.04966025259191802 -0.04966025259191802 -0.04966025259191802 -0.04966025259191802 -0.04866640131855282 -0.04866640131855282 -0.04866640131855282 -0.04866640131855282 -0.04748046395043401 
-0.04748046395043401 -0.04748046395043401 -0.04748046395043401 -0.04610705781931304 -0.04610705781931304 -0.04610705781931304 -0.04610705781931304 -0.04455153162227538 -0.04455153162227538 
-0.04455153162227538 -0.04455153162227538 -0.04281998365525678 -0.04281998365525678 -0.04281998365525678 -0.04281998365525678 -0.04091929326607204 -0.04091929326607204 -0.04091929326607204 
-0.04091929326607204 -0.03885715915919571 -0.03885715915919571 -0.03885715915919571 -0.03885715915919571 -0.03664215393252601 -0.03664215393252601 -0.03664215393252601 -0.03664215393252601 
-0.03428377514490281 -0.03428377514490281 -0.03428377514490281 -0.03428377514490281 -0.03179239137563963 -0.03179239137563963 -0.03179239137563963 -0.03179239137563963 -0.02917949608796302 
-0.02917949608796302 -0.02917949608796302 -0.02917949608796302 -0.02645586644544155 -0.02645586644544155 -0.02645586644544155 -0.02645586644544155 -0.02363911760947475 -0.02363911760947475 
-0.02363911760947475 -0.02363911760947475 -0.02072440705747131 -0.02072440705747131 -0.02072440705747131 -0.02072440705747131 -0.0177568400625845 -0.0177568400625845 -0.0177568400625845 
-0.0177568400625845 -0.01474722901308243 -0.01474722901308243 -0.01474722901308243 -0.01474722901308243 -0.01158846838645463 -0.01158846838645463 -0.01158846838645463 -0.01158846838645463 
-0.008219270633048984 -0.008219270633048984 -0.008219270633048984 -0.008219270633048984 -0.005361009772823305 -0.005361009772823305 -0.005361009772823305 -0.005361009772823305 -0.0007051491231569707 
-0.0007051491231569707 -0.0007051491231569707 -0.0007051491231569707 0.004718745696115018 0.004718745696115018 0.004718745696115018 0.004718745696115018 0.007949869812781651 0.007949869812781651 
0.007949869812781651 0.007949869812781651 0.01305718509328833 0.01305718509328833 0.01305718509328833 0.01305718509328833 0.01858764652605745 0.01858764652605745 0.01858764652605745 
0.01858764652605745 0.02421888873832686 0.02421888873832686 0.02421888873832686 0.02421888873832686 0.02971600592598419 0.02971600592598419 0.02971600592598419 0.02971600592598419 
0.03505575565965268 0.03505575565965268 0.03505575565965268 0.03505575565965268 0.04024231695552748 0.04024231695552748 0.04024231695552748 0.04024231695552748 0.04527295067386462 
0.04527295067386462 0.04527295067386462 0.04527295067386462 0.05011697406261845 0.05011697406261845 0.05011697406261845 0.05011697406261845 0.05473976674494819 0.05473976674494819 
0.05473976674494819 0.05473976674494819 0.05912349776681375 0.05912349776681375 0.05912349776681375 0.05912349776681375 0.06325251165387598 0.06325251165387598 0.06325251165387598 
0.06325251165387598 0.06711385540707498 0.06711385540707498 0.06711385540707498 0.06711385540707498 0.07069793884982076 0.07069793884982076 0.07069793884982076 0.07069793884982076 
0.07399694977171065 0.07399694977171065 0.07399694977171065 0.07399694977171065 0.07700373178399642 0.07700373178399642 0.07700373178399642 0.07700373178399642 0.07971083413870998 
0.07971083413870998 0.07971083413870998 0.07971083413870998 0.08211006169458362 0.08211006169458362 0.08211006169458362 0.08211006169458362 0.08419253375125813 0.08419253375125813 
0.08419253375125813 0.08419253375125813 0.08594912621223139 0.08594912621223139 0.08594912621223139 0.08594912621223139 0.0873711133108557 0.0873711133108557 0.0873711133108557 
0.0873711133108557 0.08845080629567764 0.08845080629567764 0.08845080629567764 0.08845080629567764 0.08918139003318826 0.08918139003318826 0.08918139003318826 0.08918139003318826 
0.08955849239304887 0.08955849239304887 0.08955849239304887 0.08955849239304887 0.08958073679880293 0.08958073679880293 0.08958073679880293 0.08958073679880293 0.08924841969839865 
0.08924841969839865 0.08924841969839865 0.08924841969839865 0.08856279276153092 0.08856279276153092 0.08856279276153092 0.08856279276153092 0.08752652968106911 0.08752652968106911 
0.08752652968106911 0.08752652968106911 0.08614421691975206 0.08614421691975206 0.08614421691975206 0.08614421691975206 0.08442193547368054 0.08442193547368054 0.08442193547368054 
0.08442193547368054 0.08236684302832398 0.08236684302832398 0.08236684302832398 0.08236684302832398 0.07998710927618417 0.07998710927618417 0.07998710927618417 0.07998710927618417 
0.07729203150337439 0.07729203150337439 0.07729203150337439 0.07729203150337439 0.07429211374527762 0.07429211374527762 0.07429211374527762 0.07429211374527762 0.07099907437855053 
0.07099907437855053 0.07099907437855053 0.07099907437855053 0.06742581434282215 0.06742581434282215 0.06742581434282215 0.06742581434282215 0.06358637878080722 0.06358637878080722 
0.06358637878080722 0.06358637878080722 0.05949588735674224 0.05949588735674224 0.05949588735674224 0.05949588735674224 0.05517046091412876 0.05517046091412876 0.05517046091412876 
0.05517046091412876 0.05062714288122989 0.05062714288122989 0.05062714288122989 0.05062714288122989 0.04588382408539265 0.04588382408539265 0.04588382408539265 0.04588382408539265 
0.04095911619629448 0.04095911619629448 0.04095911619629448 0.04095911619629448 0.03587256607442978 0.03587256607442978 0.03587256607442978 0.03587256607442978 0.03064390681518879 
0.03064390681518879 0.03064390681518879 0.03064390681518879 0.02529404869100781 0.02529404869100781 0.02529404869100781 0.02529404869100781 0.01984584212693251 0.01984584212693251 
0.01984584212693251 0.01984584212693251 0.01431790538476644 0.01431790538476644 0.01431790538476644 0.01431790538476644 0.008730827596719925 0.008730827596719925 0.008730827596719925 
0.008730827596719925 0.003110415334193333 0.003110415334193333 0.003110415334193333 0.003110415334193333 -0.002527165785226347 -0.002527165785226347 -0.002527165785226347 -0.002527165785226347 
-0.008130914259731201 -0.008130914259731201 -0.008130914259731201 -0.008130914259731201 -0.01370709721578664 -0.01370709721578664 -0.01370709721578664 -0.01370709721578664 -0.01923626839275733 
-0.01923626839275733 -0.01923626839275733 -0.01923626839275733 -0.02470387655238582 -0.02470387655238582 -0.02470387655238582 -0.02470387655238582 -0.0300724567582781 -0.0300724567582781 
-0.0300724567582781 -0.0300724567582781 -0.03531243179954826 -0.03531243179954826 -0.03531243179954826 -0.03531243179954826 -0.04040933910541728 -0.04040933910541728 -0.04040933910541728 
-0.04040933910541728 -0.04534925177042274 -0.04534925177042274 -0.04534925177042274 -0.04534925177042274 -0.05011314159060212 -0.05011314159060212 -0.05011314159060212 -0.05011314159060212 
-0.05467967516759429 -0.05467967516759429 -0.05467967516759429 -0.05467967516759429 -0.05903017334628972 -0.05903017334628972 -0.05903017334628972 -0.05903017334628972 -0.06314766415124001 
-0.06314766415124001 -0.06314766415124001 -0.06314766415124001 -0.06701587699691743 -0.06701587699691743 -0.06701587699691743 -0.06701587699691743 -0.07061951215756943 -0.07061951215756943 
-0.07061951215756943 -0.07061951215756943 -0.07394433826956023 -0.07394433826956023 -0.07394433826956023 -0.07394433826956023 -0.07697725595107127 -0.07697725595107127 -0.07697725595107127 
-0.07697725595107127 -0.07970631615933234 -0.07970631615933234 -0.07970631615933234 -0.07970631615933234 -0.08212076614283653 -0.08212076614283653 -0.08212076614283653 -0.08212076614283653 
-0.08421111678410916 -0.08421111678410916 -0.08421111678410916 -0.08421111678410916 -0.08596919450121421 -0.08596919450121421 -0.08596919450121421 -0.08596919450121421 -0.08738816454826898 
-0.08738816454826898 -0.08738816454826898 -0.08738816454826898 -0.08846251217198003 -0.08846251217198003 -0.08846251217198003 -0.08846251217198003 -0.08918734605304238 -0.08918734605304238 
-0.08918734605304238 -0.08918734605304238 -0.08955965307271109 -0.08955965307271109 -0.08955965307271109 -0.08955965307271109 -0.08957872923452248 -0.08957872923452248 -0.08957872923452248 
-0.08957872923452248 -0.08924492499595618 -0.08924492499595618 -0.08924492499595618 -0.08924492499595618 -0.08855914391725794 -0.08855914391725794 -0.08855914391725794 -0.08855914391725794 
-0.08752353636516402 -0.08752353636516402 -0.08752353636516402 -0.08752353636516402 -0.08614216209538761 -0.08614216209538761 -0.08614216209538761 -0.08614216209538761 -0.08442068318979543 
-0.08442068318979543 -0.08442068318979543 -0.08442068318979543 -0.08236599094404642 -0.08236599094404642 -0.08236599094404642 -0.08236599094404642 -0.07998613521000442 -0.07998613521000442 
-0.07998613521000442 -0.07998613521000442 -0.07729041093566337 -0.07729041093566337 -0.07729041093566337 -0.07729041093566337 -0.07428942372321534 -0.07428942372321534 -0.07428942372321534 
-0.07428942372321534 -0.07099512519666382 -0.07099512519666382 -0.07099512519666382 -0.07099512519666382 -0.06742085979052992 -0.06742085979052992 -0.06742085979052992 -0.06742085979052992 
-0.06358144358977579 -0.06358144358977579 -0.06358144358977579 -0.06358144358977579 -0.05949322635617987 -0.05949322635617987 -0.05949322635617987 -0.05949322635617987 -0.05517405510849686 
-0.05517405510849686 -0.05517405510849686 -0.05517405510849686 -0.05064348295513025 -0.05064348295513025 -0.05064348295513025 -0.05064348295513025 -0.04592081731038339 -0.04592081731038339 
-0.04592081731038339 -0.04592081731038339 -0.04103237981955625 -0.04103237981955625 -0.04103237981955625 -0.04103237981955625 -0.03598380962209719 -0.03598380962209719 -0.03598380962209719 
-0.03598380962209719 -0.03082571749291749 -0.03082571749291749 -0.03082571749291749 -0.03082571749291749 -0.02556718019667966 -0.02556718019667966 -0.02556718019667966 -0.02556718019667966 
-0.02019478361203662 -0.02019478361203662 -0.02019478361203662 -0.02019478361203662 -0.0143531592535226 -0.0143531592535226 -0.0143531592535226 -0.0143531592535226 -0.009730019251250475 
-0.009730019251250475 -0.009730019251250475 -0.009730019251250475 -0.0007442098516364801 -0.0007442098516364801 -0.0007442098516364801 -0.0007442098516364801 0.007768644652217023 0.007768644652217023 
0.007768644652217023 0.007768644652217023 0.01320880845647113 0.01320880845647113 0.01320880845647113 0.01320880845647113 0.02139675737279155 0.02139675737279155 0.02139675737279155 
0.02139675737279155 0.03028904052375683 0.03028904052375683 0.03028904052375683 0.03028904052375683 0.03929143000606981 0.03929143000606981 0.03929143000606981 0.03929143000606981 
0.04820956176580808 0.04820956176580808 0.04820956176580808 0.04820956176580808 0.05694203258620044 0.05694203258620044 0.05694203258620044 0.05694203258620044 0.06543953866016361 
0.06543953866016361 0.06543953866016361 0.06543953866016361 0.07366471073732508 0.07366471073732508 0.07366471073732508 0.07366471073732508 0.08156606787972374 0.08156606787972374 
0.08156606787972374 0.08156606787972374 0.08910410287635417 0.08910410287635417 0.08910410287635417 0.08910410287635417 0.09624795456171073 0.09624795456171073 0.09624795456171073 
0.09624795456171073 0.1029722770734202 0.1029722770734202 0.1029722770734202 0.1029722770734202 0.1092580078740276 0.1092580078740276 0.1092580078740276 0.1092580078740276 
0.1150907070937679 0.1150907070937679 0.1150907070937679 0.1150907070937679 0.1204586385585224 0.1204586385585224 0.1204586385585224 0.1204586385585224 0.1253509217976172 
0.1253509217976172 0.1253509217976172 0.1253509217976172 0.1297560682109955 0.1297560682109955 0.1297560682109955 0.1297560682109955 0.1336612013775918 0.1336612013775918 
0.1336612013775918 0.1336612013775918 0.1370520685536775 0.1370520685536775 0.1370520685536775 0.1370520685536775 0.1399137314572699 0.1399137314572699 0.1399137314572699 
0.1399137314572699 0.1422316499604409 0.1422316499604409 0.1422316499604409 0.1422316499604409 0.1439927355686333 0.1439927355686333 0.1439927355686333 0.1439927355686333 
0.1451861243457099 0.1451861243457099 0.1451861243457099 0.1451861243457099 0.1458043579734687 0.1458043579734687 0.1458043579734687 0.1458043579734687 0.1458440467449172 
0.1458440467449172 0.1458440467449172 0.1458440467449172 0.1453051860952237 0.1453051860952237 0.1453051860952237 0.1453051860952237 0.1441903607685029 0.1441903607685029 
0.1441903607685029 0.1441903607685029 0.1425046817195499 0.1425046817195499 0.1425046817195499 0.1425046817195499 0.1402557929574719 0.1402557929574719 0.1402557929574719 
0.1402557929574719 0.1374534949474075 0.1374534949474075 0.1374534949474075 0.1374534949474075 0.1341094023072542 0.1341094023072542 0.1341094023072542 0.1341094023072542 
0.1302368518035357 0.1302368518035357 0.1302368518035357 0.1302368518035357 0.1258509829057783 0.1258509829057783 0.1258509829057783 0.1258509829057783 0.1209688451704103 
0.1209688451704103 0.1209688451704103 0.1209688451704103 0.1156094459292468 0.1156094459292468 0.1156094459292468 0.1156094459292468 0.1097937444767114 0.1097937444767114 
0.1097937444767114 0.1097937444767114 0.1035445883488011 0.1035445883488011 0.1035445883488011 0.1035445883488011 0.09688660732846563 0.09688660732846563 0.09688660732846563 
0.09688660732846563 0.08984608422785853 0.08984608422785853 0.08984608422785853 0.08984608422785853 0.08245081096273016 0.08245081096273016 0.08245081096273016 0.08245081096273016 
0.07472996601764691 0.07472996601764691 0.07472996601764691 0.07472996601764691 0.06671394256912828 0.06671394256912828 0.06671394256912828 0.06671394256912828 0.05843443824774539 
0.05843443824774539 0.05843443824774539 0.05843443824774539 0.0499238774510259 0.0499238774510259 0.0499238774510259 0.0499238774510259 0.04121596278513461 0.04121596278513461 
0.04121596278513461 0.04121596278513461 0.03234616568881846 0.03234616568881846 0.03234616568881846 0.03234616568881846 0.02334825491092391 0.02334825491092391 0.02334825491092391 
0.02334825491092391 0.01425582696866546 0.01425582696866546 0.01425582696866546 0.01425582696866546 0.005107911761233696 0.005107911761233696 0.005107911761233696 0.005107911761233696 
-0.004054625419735035 -0.004054625419735035 -0.004054625419735035 -0.004054625419735035 -0.01319598708623885 -0.01319598708623885 -0.01319598708623885 -0.01319598708623885 -0.02228809325439803 
-0.02228809325439803 -0.02228809325439803 -0.02228809325439803 -0.03129594612140132 -0.03129594612140132 -0.03129594612140132 -0.03129594612140132 -0.04018273134790632 -0.04018273134790632 
-0.04018273134790632 -0.04018273134790632 -0.04891178933861229 -0.04891178933861229 -0.04891178933861229 -0.04891178933861229 -0.05744570012742788 -0.05744570012742788 -0.05744570012742788 
-0.05744570012742788 -0.06575154569741408 -0.06575154569741408 -0.06575154569741408 -0.06575154569741408 -0.07379928728424504 -0.07379928728424504 -0.07379928728424504 -0.07379928728424504 
-0.08155666588957557 -0.08155666588957557 -0.08155666588957557 -0.08155666588957557 -0.08899215357021623 -0.08899215357021623 -0.08899215357021623 -0.08899215357021623 -0.09607636170790135 
-0.09607636170790135 -0.09607636170790135 -0.09607636170790135 -0.1027813214406851 -0.1027813214406851 -0.1027813214406851 -0.1027813214406851 -0.1090805259073638 -0.1090805259073638 
-0.1090805259073638 -0.1090805259073638 -0.1149491086588698 -0.1149491086588698 -0.1149491086588698 -0.1149491086588698 -0.1203639104986848 -0.1203639104986848 -0.1203639104986848 
-0.1203639104986848 -0.1253035802712094 -0.1253035802712094 -0.1253035802712094 -0.1253035802712094 -0.129748654253143 -0.129748654253143 -0.129748654253143 -0.129748654253143 
-0.1336816223679807 -0.1336816223679807 -0.1336816223679807 -0.1336816223679807 -0.1370870038874639 -0.1370870038874639 -0.1370870038874639 -0.1370870038874639 -0.1399514309891995 
-0.1399514309891995 -0.1399514309891995 -0.1399514309891995 -0.1422637028319082 -0.1422637028319082 -0.1422637028319082 -0.1422637028319082 -0.1440146923358161 -0.1440146923358161 
-0.1440146923358161 -0.1440146923358161 -0.1451971398379608 -0.1451971398379608 -0.1451971398379608 -0.1451971398379608 -0.1458061936466701 -0.1458061936466701 -0.1458061936466701 
-0.1458061936466701 -0.1458398150035258 -0.1458398150035258 -0.1458398150035258 -0.1458398150035258 -0.1452981904161948 -0.1452981904161948 -0.1452981904161948 -0.1452981904161948 
-0.1441832785612582 -0.1441832785612582 -0.1441832785612582 -0.1441832785612582 -0.1424991629486382 -0.1424991629486382 -0.1424991629486382 -0.1424991629486382 -0.1402524259791239 
-0.1402524259791239 -0.1402524259791239 -0.1402524259791239 -0.1374520206761679 -0.1374520206761679 -0.1374520206761679 -0.1374520206761679 -0.134109038109928 -0.134109038109928 
-0.134109038109928 -0.134109038109928 -0.1302366119553462 -0.1302366119553462 -0.1302366119553462 -0.1302366119553462 -0.1258499378384937 -0.1258499378384937 -0.1258499378384937 
-0.1258499378384937 -0.1209663269961046 -0.1209663269961046 -0.1209663269961046 -0.1209663269961046 -0.1156052599225946 -0.1156052599225946 -0.1156052599225946 -0.1156052599225946 
-0.1097884705476378 -0.1097884705476378 -0.1097884705476378 -0.1097884705476378 -0.103540043602685 -0.103540043602685 -0.103540043602685 -0.103540043602685 -0.09688650212556038 
-0.09688650212556038 -0.09688650212556038 -0.09688650212556038 -0.08985676893915895 -0.08985676893915895 -0.08985676893915895 -0.08985676893915895 -0.08248229488074894 -0.08248229488074894 
-0.08248229488074894 -0.08248229488074894 -0.07479519496444233 -0.07479519496444233 -0.07479519496444233 -0.07479519496444233 -0.06683410187708558 -0.06683410187708558 -0.06683410187708558 
-0.06683410187708558 -0.05862151687770667 -0.05862151687770667 -0.05862151687770667 -0.05862151687770667 -0.05021242905060914 -0.05021242905060914 -0.05021242905060914 -0.05021242905060914 
-0.04162716224639371 -0.04162716224639371 -0.04162716224639371 -0.04162716224639371 -0.03294951416766605 -0.03294951416766605 -0.03294951416766605 -0.03294951416766605 -0.02362552378594876 
-0.02362552378594876 -0.02362552378594876 -0.02362552378594876 -0.01599992601079028 -0.01599992601079028 -0.01599992601079028 -0.01599992601079028 -0.001290684737329755 -0.001290684737329755 
-0.001290684737329755 -0.001290684737329755 0.01090379739296259 0.01090379739296259 0.01090379739296259 0.01090379739296259 0.01877723647621329 0.01877723647621329 0.01877723647621329 
0.01877723647621329 0.03042899257134327 0.03042899257134327 0.03042899257134327 0.03042899257134327 0.0429511705477682 0.0429511705477682 0.0429511705477682 0.0429511705477682 
0.05561105086114868 0.05561105086114868 0.05561105086114868 0.05561105086114868 0.06816736378833974 0.06816736378833974 0.06816736378833974 0.06816736378833974 0.08050327533058294 
0.08050327533058294 0.08050327533058294 0.08050327533058294 0.09253709237731314 0.09253709237731314 0.09253709237731314 0.09253709237731314 0.1041886851941807 0.1041886851941807 
0.1041886851941807 0.1041886851941807 0.1153863569268831 0.1153863569268831 0.1153863569268831 0.1153863569268831 0.1260703166473758 0.1260703166473758 0.1260703166473758 
0.1260703166473758 0.1361922086494681 0.1361922086494681 0.1361922086494681 0.1361922086494681 0.1457155786790575 0.1457155786790575 0.1457155786790575 0.1457155786790575 
0.1546139509672326 0.1546139509672326 0.1546139509672326 0.1546139509672326 0.1628679889663961 0.1628679889663961 0.1628679889663961 0.1628679889663961 0.170462391296783 
0.170462391296783 0.170462391296783 0.170462391296783 0.1773829607889176 0.1773829607889176 0.1773829607889176 0.1773829607889176 0.1836143811121828 0.1836143811121828 
0.1836143811121828 0.1836143811121828 0.1891390558315293 0.1891390558315293 0.1891390558315293 0.1891390558315293 0.1939371100497699 0.1939371100497699 0.1939371100497699 
0.1939371100497699 0.1979873834965433 0.1979873834965433 0.1979873834965433 0.1979873834965433 0.2012690232956998 0.2012690232956998 0.2012690232956998 0.2012690232956998 
0.2037631541338895 0.2037631541338895 0.2037631541338895 0.2037631541338895 0.2054543303651439 0.2054543303651439 0.2054543303651439 0.2054543303651439 0.2063318358694957 
0.2063318358694957 0.2063318358694957 0.2063318358694957 0.2063903373786281 0.2063903373786281 0.2063903373786281 0.2063903373786281 0.2056294888264791 0.2056294888264791 
0.2056294888264791 0.2056294888264791 0.2040531547885311 0.2040531547885311 0.2040531547885311 0.2040531547885311 0.201668904770598 0.201668904770598 0.201668904770598 
0.201668904770598 0.1984876512409394 0.1984876512409394 0.1984876512409394 0.1984876512409394 0.1945232484413686 0.1945232484413686 0.1945232484413686 0.1945232484413686 
0.1897921375857997 0.1897921375857997 0.1897921375857997 0.1897921375857997 0.1843132163893572 0.1843132163893572 0.1843132163893572 0.1843132163893572 0.178107917565711 
0.178107917565711 0.178107917565711 0.178107917565711 0.1712003419693344 0.1712003419693344 0.1712003419693344 0.1712003419693344 0.163617351624094 0.163617351624094 
0.163617351624094 0.163617351624094 0.1553885760823009 0.1553885760823009 0.1553885760823009 0.1553885760823009 0.1465463326753241 0.1465463326753241 0.1465463326753241 
0.1465463326753241 0.1371254822426363 0.1371254822426363 0.1371254822426363 0.1371254822426363 0.1271632430931206 0.1271632430931206 0.1271632430931206 0.1271632430931206 
0.1166989871646777 0.1166989871646777 0.1166989871646777 0.1166989871646777 0.1057740490029576 0.1057740490029576 0.1057740490029576 0.1057740490029576 0.09443150775975424 
0.09443150775975424 0.09443150775975424 0.09443150775975424 0.08271615074636886 0.08271615074636886 0.08271615074636886 0.08271615074636886 0.07067404532940662 0.07067404532940662 
0.07067404532940662 0.07067404532940662 0.05835269932356699 0.05835269932356699 0.05835269932356699 0.05835269932356699 0.04580138868804168 0.04580138868804168 0.04580138868804168 
0.04580138868804168 0.03306944015626349 0.03306944015626349 0.03306944015626349 0.03306944015626349 0.02020611890857826 0.02020611890857826 0.02020611890857826 0.02020611890857826 
0.007263284059477505 0.007263284059477505 0.007263284059477505 0.007263284059477505 -0.005705488053409216 -0.005705488053409216 -0.005705488053409216 -0.005705488053409216 -0.01864942937904054 
-0.01864942937904054 -0.01864942937904054 -0.01864942937904054 -0.03152023233299769 -0.03152023233299769 -0.03152023233299769 -0.03152023233299769 -0.04426878227644598 -0.04426878227644598 
-0.04426878227644598 -0.04426878227644598 -0.05684408712252052 -0.05684408712252052 -0.05684408712252052 -0.05684408712252052 -0.06919459320634611 -0.06919459320634611 -0.06919459320634611 
-0.06919459320634611 -0.08127119830051738 -0.08127119830051738 -0.08127119830051738 -0.08127119830051738 -0.09302744060772142 -0.09302744060772142 -0.09302744060772142 -0.09302744060772142 
-0.1044172416850589 -0.1044172416850589 -0.1044172416850589 -0.1044172416850589 -0.1153953282364177 -0.1153953282364177 -0.1153953282364177 -0.1153953282364177 -0.1259181460918194 
-0.1259181460918194 -0.1259181460918194 -0.1259181460918194 -0.1359440119096605 -0.1359440119096605 -0.1359440119096605 -0.1359440119096605 -0.1454332564852805 -0.1454332564852805 
-0.1454332564852805 -0.1454332564852805 -0.1543484010667817 -0.1543484010667817 -0.1543484010667817 -0.1543484010667817 -0.162654261222246 -0.162654261222246 -0.162654261222246 