Title = Result/Post/Linear_Advection_2D/FVM/MLP_u1_Least_Square/Sine_Wave_2D/Quad100/
FileType = Solution
Variables = q
Zone T = Result/Post/Linear_Advection_2D/FVM/MLP_u1_Least_Square/Sine_Wave_2D/Quad100/
ZoneType = FETriangle
Nodes = 40000
Elements = 20000
DataPacking = Block
StrandID = 2
SolutionTime = 0.1
0.1325852963632524 0.1325852963632524 0.1325852963632524 0.1325852963632524 0.1245148274845024 0.1245148274845024 0.1245148274845024 0.1245148274845024 0.112122949418894 0.112122949418894 
0.112122949418894 0.112122949418894 0.0983380882090506 0.0983380882090506 0.0983380882090506 0.0983380882090506 0.08393512337658526 0.08393512337658526 0.08393512337658526 
0.08393512337658526 0.06922179197430817 0.06922179197430817 0.06922179197430817 0.06922179197430817 0.05449070064812887 0.05449070064812887 0.05449070064812887 0.05449070064812887 
0.03999379378063184 0.03999379378063184 0.03999379378063184 0.03999379378063184 0.02571240179035154 0.02571240179035154 0.02571240179035154 0.02571240179035154 0.01124905290312602 
0.01124905290312602 0.01124905290312602 0.01124905290312602 -0.003927549750770349 -0.003927549750770349 -0.003927549750770349 -0.003927549750770349 -0.02003559711041169 -0.02003559711041169 
-0.02003559711041169 -0.02003559711041169 -0.0367455978977366 -0.0367455978977366 -0.0367455978977366 -0.0367455978977366 -0.05338375592867212 -0.05338375592867212 -0.05338375592867212 
-0.05338375592867212 -0.0693712828225615 -0.0693712828225615 -0.0693712828225615 -0.0693712828225615 -0.0845103235499763 -0.0845103235499763 -0.0845103235499763 -0.0845103235499763 
-0.0989355759219829 -0.0989355759219829 -0.0989355759219829 -0.0989355759219829 -0.1128698219890769 -0.1128698219890769 -0.1128698219890769 -0.1128698219890769 -0.1264276719923511 
-0.1264276719923511 -0.1264276719923511 -0.1264276719923511 -0.1395807223327051 -0.1395807223327051 -0.1395807223327051 -0.1395807223327051 -0.1522299468912178 -0.1522299468912178 
-0.1522299468912178 -0.1522299468912178 -0.1642809548200546 -0.1642809548200546 -0.1642809548200546 -0.1642809548200546 -0.1756709283452347 -0.1756709283452347 -0.1756709283452347 
-0.1756709283452347 -0.1863589162214269 -0.1863589162214269 -0.1863589162214269 -0.1863589162214269 -0.1963097548887925 -0.1963097548887925 -0.1963097548887925 -0.1963097548887925 
-0.2054871685020913 -0.2054871685020913 -0.2054871685020913 -0.2054871685020913 -0.2138547352485568 -0.2138547352485568 -0.2138547352485568 -0.2138547352485568 -0.2213785663467637 
-0.2213785663467637 -0.2213785663467637 -0.2213785663467637 -0.2280285830897585 -0.2280285830897585 -0.2280285830897585 -0.2280285830897585 -0.2337785613015601 -0.2337785613015601 
-0.2337785613015601 -0.2337785613015601 -0.2386059323490358 -0.2386059323490358 -0.2386059323490358 -0.2386059323490358 -0.2424917810659064 -0.2424917810659064 -0.2424917810659064 
-0.2424917810659064 -0.2454208929381984 -0.2454208929381984 -0.2454208929381984 -0.2454208929381984 -0.2473815065060301 -0.2473815065060301 -0.2473815065060301 -0.2473815065060301 
-0.2483642713369883 -0.2483642713369883 -0.2483642713369883 -0.2483642713369883 -0.2483670884751604 -0.2483670884751604 -0.2483670884751604 -0.2483670884751604 -0.247391566026769 
-0.247391566026769 -0.247391566026769 -0.247391566026769 -0.245438974442017 -0.245438974442017 -0.245438974442017 -0.245438974442017 -0.2425173697929529 -0.2425173697929529 
-0.2425173697929529 -0.2425173697929529 -0.2386385387869745 -0.2386385387869745 -0.2386385387869745 -0.2386385387869745 -0.233817975063411 -0.233817975063411 -0.233817975063411 
-0.233817975063411 -0.228074709808685 -0.228074709808685 -0.228074709808685 -0.228074709808685 -0.2214313897362458 -0.2214313897362458 -0.2214313897362458 -0.2214313897362458 
-0.2139142035835824 -0.2139142035835824 -0.2139142035835824 -0.2139142035835824 -0.2055528004846512 -0.2055528004846512 -0.2055528004846512 -0.2055528004846512 -0.1963801725997189 
-0.1963801725997189 -0.1963801725997189 -0.1963801725997189 -0.1864325194323825 -0.1864325194323825 -0.1864325194323825 -0.1864325194323825 -0.1757491008542065 -0.1757491008542065 
-0.1757491008542065 -0.1757491008542065 -0.1643720777119216 -0.1643720777119216 -0.1643720777119216 -0.1643720777119216 -0.1523463512262804 -0.1523463512262804 -0.1523463512262804 
-0.1523463512262804 -0.1397193900962515 -0.1397193900962515 -0.1397193900962515 -0.1397193900962515 -0.1265410128614154 -0.1265410128614154 -0.1265410128614154 -0.1265410128614154 
-0.1128632166491616 -0.1128632166491616 -0.1128632166491616 -0.1128632166491616 -0.09874005416410638 -0.09874005416410638 -0.09874005416410638 -0.09874005416410638 -0.08422728609287541 
-0.08422728609287541 -0.08422728609287541 -0.08422728609287541 -0.06938200160396202 -0.06938200160396202 -0.06938200160396202 -0.06938200160396202 -0.05426268265122236 -0.05426268265122236 
-0.05426268265122236 -0.05426268265122236 -0.03892925960376347 -0.03892925960376347 -0.03892925960376347 -0.03892925960376347 -0.02344254761948105 -0.02344254761948105 -0.02344254761948105 
-0.02344254761948105 -0.007863541018215962 -0.007863541018215962 -0.007863541018215962 -0.007863541018215962 0.00774671018937272 0.00774671018937272 0.00774671018937272 0.00774671018937272 
0.02332679508591376 0.02332679508591376 0.02332679508591376 0.02332679508591376 0.03881496480852735 0.03881496480852735 0.03881496480852735 0.03881496480852735 0.05414973406428407 
0.05414973406428407 0.05414973406428407 0.05414973406428407 0.06927051564085046 0.06927051564085046 0.06927051564085046 0.06927051564085046 0.0841178377281645 0.0841178377281645 
0.0841178377281645 0.0841178377281645 0.09863329762768258 0.09863329762768258 0.09863329762768258 0.09863329762768258 0.1127596268152651 0.1127596268152651 0.1127596268152651 
0.1127596268152651 0.1264409832670685 0.1264409832670685 0.1264409832670685 0.1264409832670685 0.1396233027947427 0.1396233027947427 0.1396233027947427 0.1396233027947427 
0.1522545567284609 0.1522545567284609 0.1522545567284609 0.1522545567284609 0.1642849216417108 0.1642849216417108 0.1642849216417108 0.1642849216417108 0.1756669355610254 
0.1756669355610254 0.1756669355610254 0.1756669355610254 0.1863556781927419 0.1863556781927419 0.1863556781927419 0.1863556781927419 0.1963089601300668 0.1963089601300668 
0.1963089601300668 0.1963089601300668 0.2054874978910866 0.2054874978910866 0.2054874978910866 0.2054874978910866 0.2138550690363813 0.2138550690363813 0.2138550690363813 
0.2138550690363813 0.2213786517783042 0.2213786517783042 0.2213786517783042 0.2213786517783042 0.2280285531391259 0.2280285531391259 0.2280285531391259 0.2280285531391259 
0.2337785319397021 0.2337785319397021 0.2337785319397021 0.2337785319397021 0.2386059262076996 0.2386059262076996 0.2386059262076996 0.2386059262076996 0.2424917840896476 
0.2424917840896476 0.2424917840896476 0.2424917840896476 0.2454208951382366 0.2454208951382366 0.2454208951382366 0.2454208951382366 0.2473815067548527 0.2473815067548527 
0.2473815067548527 0.2473815067548527 0.2483642710536458 0.2483642710536458 0.2483642710536458 0.2483642710536458 0.2483670883391829 0.2483670883391829 0.2483670883391829 
0.2483670883391829 0.2473915660604696 0.2473915660604696 0.2473915660604696 0.2473915660604696 0.2454389743055355 0.2454389743055355 0.2454389743055355 0.2454389743055355 
0.2425173706163772 0.2425173706163772 0.2425173706163772 0.2425173706163772 0.2386385347927397 0.2386385347927397 0.2386385347927397 0.2386385347927397 0.2338179935279135 
0.2338179935279135 0.2338179935279135 0.2338179935279135 0.2280746281991969 0.2280746281991969 0.2280746281991969 0.2280746281991969 0.221431738238611 0.221431738238611 
0.221431738238611 0.221431738238611 0.2139127472353557 0.2139127472353557 0.2139127472353557 0.2139127472353557 0.2055588228810596 0.2055588228810596 0.2055588228810596 
0.2055588228810596 0.1963553667314132 0.1963553667314132 0.1963553667314132 0.1963553667314132 0.1865343974248591 0.1865343974248591 0.1865343974248591 0.1865343974248591 
0.1753327932875165 0.1753327932875165 0.1753327932875165 0.1753327932875165 0.1660505919471066 0.1660505919471066 0.1660505919471066 0.1660505919471066 0.1456799847319602 
0.1456799847319602 0.1456799847319602 0.1456799847319602 0.1130266667900387 0.1130266667900387 0.1130266667900387 0.1130266667900387 0.1058859673181169 0.1058859673181169 
0.1058859673181169 0.1058859673181169 0.09529941268400345 0.09529941268400345 0.09529941268400345 0.09529941268400345 0.08361367181424226 0.08361367181424226 0.08361367181424226 
0.08361367181424226 0.07140714622701819 0.07140714622701819 0.07140714622701819 0.07140714622701819 0.05892237192209421 0.05892237192209421 0.05892237192209421 0.05892237192209421 
0.04640401425176258 0.04640401425176258 0.04640401425176258 0.04640401425176258 0.03406726206072942 0.03406726206072942 0.03406726206072942 0.03406726206072942 0.02190166999034537 
0.02190166999034537 0.02190166999034537 0.02190166999034537 0.009578255036752623 0.009578255036752623 0.009578255036752623 0.009578255036752623 -0.003346412016710491 -0.003346412016710491 
-0.003346412016710491 -0.003346412016710491 -0.01705478607055884 -0.01705478607055884 -0.01705478607055884 -0.01705478607055884 -0.03126978464891249 -0.03126978464891249 -0.03126978464891249 
-0.03126978464891249 -0.04542423269901387 -0.04542423269901387 -0.04542423269901387 -0.04542423269901387 -0.05902973966012674 -0.05902973966012674 -0.05902973966012674 -0.05902973966012674 
-0.07191776096912575 -0.07191776096912575 -0.07191776096912575 -0.07191776096912575 -0.08419990954693216 -0.08419990954693216 -0.08419990954693216 -0.08419990954693216 -0.09606289395620567 
-0.09606289395620567 -0.09606289395620567 -0.09606289395620567 -0.107603290180757 -0.107603290180757 -0.107603290180757 -0.107603290180757 -0.118797648273224 -0.118797648273224 
-0.118797648273224 -0.118797648273224 -0.1295628507225529 -0.1295628507225529 -0.1295628507225529 -0.1295628507225529 -0.1398192374977885 -0.1398192374977885 -0.1398192374977885 
-0.1398192374977885 -0.1495134070979022 -0.1495134070979022 -0.1495134070979022 -0.1495134070979022 -0.1586102926243214 -0.1586102926243214 -0.1586102926243214 -0.1586102926243214 
-0.1670797879695758 -0.1670797879695758 -0.1670797879695758 -0.1670797879695758 -0.1748909661617882 -0.1748909661617882 -0.1748909661617882 -0.1748909661617882 -0.1820128491019829 
-0.1820128491019829 -0.1820128491019829 -0.1820128491019829 -0.1884166220178368 -0.1884166220178368 -0.1884166220178368 -0.1884166220178368 -0.1940766982040539 -0.1940766982040539 
-0.1940766982040539 -0.1940766982040539 -0.198970769239864 -0.198970769239864 -0.198970769239864 -0.198970769239864 -0.2030796484394207 -0.2030796484394207 -0.2030796484394207 
-0.2030796484394207 -0.2063872375838788 -0.2063872375838788 -0.2063872375838788 -0.2063872375838788 -0.2088804280089061 -0.2088804280089061 -0.2088804280089061 -0.2088804280089061 
-0.2105488132765928 -0.2105488132765928 -0.2105488132765928 -0.2105488132765928 -0.2113854546679241 -0.2113854546679241 -0.2113854546679241 -0.2113854546679241 -0.2113882156120082 
-0.2113882156120082 -0.2113882156120082 -0.2113882156120082 -0.2105578637074259 -0.2105578637074259 -0.2105578637074259 -0.2105578637074259 -0.2088964975003357 -0.2088964975003357 
-0.2088964975003357 -0.2088964975003357 -0.2064101996931787 -0.2064101996931787 -0.2064101996931787 -0.2064101996931787 -0.2031090474405559 -0.2031090474405559 -0.2031090474405559 
-0.2031090474405559 -0.1990063054267867 -0.1990063054267867 -0.1990063054267867 -0.1990063054267867 -0.1941182495167927 -0.1941182495167927 -0.1941182495167927 -0.1941182495167927 
-0.1884641708611116 -0.1884641708611116 -0.1884641708611116 -0.1884641708611116 -0.1820663500876476 -0.1820663500876476 -0.1820663500876476 -0.1820663500876476 -0.1749500100502877 
-0.1749500100502877 -0.1749500100502877 -0.1749500100502877 -0.1671432229710083 -0.1671432229710083 -0.1671432229710083 -0.1671432229710083 -0.1586767955867724 -0.1586767955867724 
-0.1586767955867724 -0.1586767955867724 -0.1495841408918036 -0.1495841408918036 -0.1495841408918036 -0.1495841408918036 -0.139901139959182 -0.139901139959182 -0.139901139959182 
-0.139901139959182 -0.129666011959955 -0.129666011959955 -0.129666011959955 -0.129666011959955 -0.1189191612952723 -0.1189191612952723 -0.1189191612952723 -0.1189191612952723 
-0.1077029698716808 -0.1077029698716808 -0.1077029698716808 -0.1077029698716808 -0.09606171548296646 -0.09606171548296646 -0.09606171548296646 -0.09606171548296646 -0.0840414874863015 
-0.0840414874863015 -0.0840414874863015 -0.0840414874863015 -0.07168965899060963 -0.07168965899060963 -0.07168965899060963 -0.07168965899060963 -0.05905456513707281 -0.05905456513707281 
-0.05905456513707281 -0.05905456513707281 -0.04618602481221709 -0.04618602481221709 -0.04618602481221709 -0.04618602481221709 -0.03313547228169246 -0.03313547228169246 -0.03313547228169246 
-0.03313547228169246 -0.01995490645840033 -0.01995490645840033 -0.01995490645840033 -0.01995490645840033 -0.006695927501099066 -0.006695927501099066 -0.006695927501099066 -0.006695927501099066 
0.006590003714825396 0.006590003714825396 0.006590003714825396 0.006590003714825396 0.01985071204553631 0.01985071204553631 0.01985071204553631 0.01985071204553631 0.03303327571897413 
0.03303327571897413 0.03303327571897413 0.03303327571897413 0.04608501174179759 0.04608501174179759 0.04608501174179759 0.04608501174179759 0.05895435332505192 0.05895435332505192 
0.05895435332505192 0.05895435332505192 0.07159092040703083 0.07159092040703083 0.07159092040703083 0.07159092040703083 0.08394518207840154 0.08394518207840154 0.08394518207840154 
0.08394518207840154 0.09596838825193001 0.09596838825193001 0.09596838825193001 0.09596838825193001 0.1076129126648288 0.1076129126648288 0.1076129126648288 0.1076129126648288 
0.1188326757075304 0.1188326757075304 0.1188326757075304 0.1188326757075304 0.1295833943333831 0.1295833943333831 0.1295833943333831 0.1295833943333831 0.1398226880086516 
0.1398226880086516 0.1398226880086516 0.1398226880086516 0.1495101757152766 0.1495101757152766 0.1495101757152766 0.1495101757152766 0.1586076246423291 0.1586076246423291 
0.1586076246423291 0.1586076246423291 0.1670791218446597 0.1670791218446597 0.1670791218446597 0.1670791218446597 0.1748912304469655 0.1748912304469655 0.1748912304469655 
0.1748912304469655 0.1820131217855487 0.1820131217855487 0.1820131217855487 0.1820131217855487 0.1884166924029803 0.1884166924029803 0.1884166924029803 0.1884166924029803 
0.1940766740642462 0.1940766740642462 0.1940766740642462 0.1940766740642462 0.1989707453900801 0.1989707453900801 0.1989707453900801 0.1989707453900801 0.20307964345346 
0.20307964345346 0.20307964345346 0.20307964345346 0.2063872400356139 0.2063872400356139 0.2063872400356139 0.2063872400356139 0.2088804297848195 0.2088804297848195 
0.2088804297848195 0.2088804297848195 0.2105488134731977 0.2105488134731977 0.2105488134731977 0.2105488134731977 0.2113854544380033 0.2113854544380033 0.2113854544380033 
0.2113854544380033 0.211388215503813 0.211388215503813 0.211388215503813 0.211388215503813 0.2105578637320138 0.2105578637320138 0.2105578637320138 0.2105578637320138 
0.2088964974072038 0.2088964974072038 0.2088964974072038 0.2088964974072038 0.2064102002715937 0.2064102002715937 0.2064102002715937 0.2064102002715937 0.2031090446262777 
0.2031090446262777 0.2031090446262777 0.2031090446262777 0.1990063184750804 0.1990063184750804 0.1990063184750804 0.1990063184750804 0.1941181917066509 0.1941181917066509 
0.1941181917066509 0.1941181917066509 0.1884644181818932 0.1884644181818932 0.1884644181818932 0.1884644181818932 0.1820653150200539 0.1820653150200539 0.1820653150200539 
0.1820653150200539 0.1749542976708374 0.1749542976708374 0.1749542976708374 0.1749542976708374 0.1671255125167315 0.1671255125167315 0.1671255125167315 0.1671255125167315 
0.1587499173632848 0.1587499173632848 0.1587499173632848 0.1587499173632848 0.149282251587046 0.149282251587046 0.149282251587046 0.149282251587046 0.1411559347000756 
0.1411559347000756 0.1411559347000756 0.1411559347000756 0.124224321867868 0.124224321867868 0.124224321867868 0.124224321867868 0.08454513659817688 0.08454513659817688 
0.08454513659817688 0.08454513659817688 0.07925896739279456 0.07925896739279456 0.07925896739279456 0.07925896739279456 0.07126602602320185 0.07126602602320185 0.07126602602320185 
0.07126602602320185 0.06248091778452059 0.06248091778452059 0.06248091778452059 0.06248091778452059 0.05334569698307099 0.05334569698307099 0.05334569698307099 0.05334569698307099 
0.04402267326284903 0.04402267326284903 0.04402267326284903 0.04402267326284903 0.03467886888718163 0.03467886888718163 0.03467886888718163 0.03467886888718163 0.02546884828915129 
0.02546884828915129 0.02546884828915129 0.02546884828915129 0.01638425910567707 0.01638425910567707 0.01638425910567707 0.01638425910567707 0.00717785826663306 0.00717785826663306 
0.00717785826663306 0.00717785826663306 -0.002484856471410744 -0.002484856471410744 -0.002484856471410744 -0.002484856471410744 -0.01274095347057188 -0.01274095347057188 -0.01274095347057188 
-0.01274095347057188 -0.0233793189459826 -0.0233793189459826 -0.0233793189459826 -0.0233793189459826 -0.03397036155187935 -0.03397036155187935 -0.03397036155187935 -0.03397036155187935 
-0.04414647360301924 -0.04414647360301924 -0.04414647360301924 -0.04414647360301924 -0.05378329020425728 -0.05378329020425728 -0.05378329020425728 -0.05378329020425728 -0.0629672168753192 
-0.0629672168753192 -0.0629672168753192 -0.0629672168753192 -0.07183920063782848 -0.07183920063782848 -0.07183920063782848 -0.07183920063782848 -0.08047080755669106 -0.08047080755669106 
-0.08047080755669106 -0.08047080755669106 -0.08884333024922494 -0.08884333024922494 -0.08884333024922494 -0.08884333024922494 -0.09689413837106323 -0.09689413837106323 -0.09689413837106323 
-0.09689413837106323 -0.1045639323756795 -0.1045639323756795 -0.1045639323756795 -0.1045639323756795 -0.1118132163567183 -0.1118132163567183 -0.1118132163567183 -0.1118132163567183 
-0.1186159709980969 -0.1186159709980969 -0.1186159709980969 -0.1186159709980969 -0.1249496535205607 -0.1249496535205607 -0.1249496535205607 -0.1249496535205607 -0.1307910463054646 
-0.1307910463054646 -0.1307910463054646 -0.1307910463054646 -0.1361169400669828 -0.1361169400669828 -0.1361169400669828 -0.1361169400669828 -0.1409057929673965 -0.1409057929673965 
-0.1409057929673965 -0.1409057929673965 -0.1451384931483554 -0.1451384931483554 -0.1451384931483554 -0.1451384931483554 -0.1487983755280671 -0.1487983755280671 -0.1487983755280671 
-0.1487983755280671 -0.1518710900074444 -0.1518710900074444 -0.1518710900074444 -0.1518710900074444 -0.1543445395725695 -0.1543445395725695 -0.1543445395725695 -0.1543445395725695 
-0.1562088025816928 -0.1562088025816928 -0.1562088025816928 -0.1562088025816928 -0.157456145230825 -0.157456145230825 -0.157456145230825 -0.157456145230825 -0.1580816028528678 
-0.1580816028528678 -0.1580816028528678 -0.1580816028528678 -0.1580835045339568 -0.1580835045339568 -0.1580835045339568 -0.1580835045339568 -0.1574622875999793 -0.1574622875999793 
-0.1574622875999793 -0.1574622875999793 -0.1562198224752642 -0.1562198224752642 -0.1562198224752642 -0.1562198224752642 -0.1543604991182642 -0.1543604991182642 -0.1543604991182642 
-0.1543604991182642 -0.1518916613164683 -0.1518916613164683 -0.1518916613164683 -0.1518916613164683 -0.1488232571841471 -0.1488232571841471 -0.1488232571841471 -0.1488232571841471 
-0.1451675504149355 -0.1451675504149355 -0.1451675504149355 -0.1451675504149355 -0.1409390122730773 -0.1409390122730773 -0.1409390122730773 -0.1409390122730773 -0.1361543124617459 
-0.1361543124617459 -0.1361543124617459 -0.1361543124617459 -0.1308323041211532 -0.1308323041211532 -0.1308323041211532 -0.1308323041211532 -0.1249939704040129 -0.1249939704040129 
-0.1249939704040129 -0.1249939704040129 -0.1186623437670158 -0.1186623437670158 -0.1186623437670158 -0.1186623437670158 -0.1118624081408993 -0.1118624081408993 -0.1118624081408993 
-0.1118624081408993 -0.1046209941162316 -0.1046209941162316 -0.1046209941162316 -0.1046209941162316 -0.09696668944163567 -0.09696668944163567 -0.09696668944163567 -0.09696668944163567 
-0.08892971270476847 -0.08892971270476847 -0.08892971270476847 -0.08892971270476847 -0.08054174632525191 -0.08054174632525191 -0.08054174632525191 -0.08054174632525191 -0.07183595304046317 
-0.07183595304046317 -0.07183595304046317 -0.07183595304046317 -0.06284683783846132 -0.06284683783846132 -0.06284683783846132 -0.06284683783846132 -0.05360958050251893 -0.05360958050251893 
-0.05360958050251893 -0.05360958050251893 -0.04416008113580942 -0.04416008113580942 -0.04416008113580942 -0.04416008113580942 -0.03453601570081497 -0.03453601570081497 -0.03453601570081497 
-0.03453601570081497 -0.02477664608342385 -0.02477664608342385 -0.02477664608342385 -0.02477664608342385 -0.01492092914575747 -0.01492092914575747 -0.01492092914575747 -0.01492092914575747 
-0.005006461334273419 -0.005006461334273419 -0.005006461334273419 -0.005006461334273419 0.004929290054174265 0.004929290054174265 0.004929290054174265 0.004929290054174265 0.01484720366882742 
0.01484720366882742 0.01484720366882742 0.01484720366882742 0.02470666938949171 0.02470666938949171 0.02470666938949171 0.02470666938949171 0.03446747230380642 0.03446747230380642 
0.03446747230380642 0.03446747230380642 0.04409111659716783 0.04409111659716783 0.04409111659716783 0.04409111659716783 0.05354053503578093 0.05354053503578093 0.05354053503578093 
0.05354053503578093 0.06277913840184315 0.06277913840184315 0.06277913840184315 0.06277913840184315 0.07177048574852161 0.07177048574852161 0.07177048574852161 0.07177048574852161 
0.0804787470045021 0.0804787470045021 0.0804787470045021 0.0804787470045021 0.08886930003958424 0.08886930003958424 0.08886930003958424 0.08886930003958424 0.09690900378275336 
0.09690900378275336 0.09690900378275336 0.09690900378275336 0.1045662073792676 0.1045662073792676 0.1045662073792676 0.1045662073792676 0.111810745568121 0.111810745568121 
0.111810745568121 0.111810745568121 0.1186140320944417 0.1186140320944417 0.1186140320944417 0.1186140320944417 0.124949204829178 0.124949204829178 0.124949204829178 
0.124949204829178 0.1307912571040655 0.1307912571040655 0.1307912571040655 0.1307912571040655 0.1361171384951317 0.1361171384951317 0.1361171384951317 0.1361171384951317 
0.1409058395997975 0.1409058395997975 0.1409058395997975 0.1409058395997975 0.1451384734500784 0.1451384734500784 0.1451384734500784 0.1451384734500784 0.1487983582641269 
0.1487983582641269 0.1487983582641269 0.1487983582641269 0.1518710868781039 0.1518710868781039 0.1518710868781039 0.1518710868781039 0.1543445415386693 0.1543445415386693 
0.1543445415386693 0.1543445415386693 0.1562088038443321 0.1562088038443321 0.1562088038443321 0.1562088038443321 0.1574561453278653 0.1574561453278653 0.1574561453278653 
0.1574561453278653 0.1580816026749505 0.1580816026749505 0.1580816026749505 0.1580816026749505 0.1580835044599432 0.1580835044599432 0.1580835044599432 0.1580835044599432 
0.157462287621101 0.157462287621101 0.157462287621101 0.157462287621101 0.1562198224085237 0.1562198224085237 0.1562198224085237 0.1562198224085237 0.1543604995340127 
0.1543604995340127 0.1543604995340127 0.1543604995340127 0.1518916592931229 0.1518916592931229 0.1518916592931229 0.1518916592931229 0.1488232665595409 0.1488232665595409 
0.1488232665595409 0.1488232665595409 0.1451675088667707 0.1451675088667707 0.1451675088667707 0.1451675088667707 0.1409391902772767 0.1409391902772767 0.1409391902772767 
0.1409391902772767 0.1361535653117009 0.1361535653117009 0.1361535653117009 0.1361535653117009 0.1308354136119947 0.1308354136119947 0.1308354136119947 0.1308354136119947 
0.1249810378424677 0.1249810378424677 0.1249810378424677 0.1249810378424677 0.1187162789227908 0.1187162789227908 0.1187162789227908 0.1187162789227908 0.1116366382660538 
0.1116366382660538 0.1116366382660538 0.1116366382660538 0.1055729398064115 0.1055729398064115 0.1055729398064115 0.1055729398064115 0.09287966864488535 0.09287966864488535 
0.09287966864488535 0.09287966864488535 0.05506418291790026 0.05506418291790026 0.05506418291790026 0.05506418291790026 0.05165496290925201 0.05165496290925201 0.05165496290925201 
0.05165496290925201 0.04645127891203134 0.04645127891203134 0.04645127891203134 0.04645127891203134 0.0407004783861244 0.0407004783861244 0.0407004783861244 0.0407004783861244 
0.03472188252651198 0.03472188252651198 0.03472188252651198 0.03472188252651198 0.02863295953388401 0.02863295953388401 0.02863295953388401 0.02863295953388401 0.02254399313225655 
0.02254399313225655 0.02254399313225655 0.02254399313225655 0.01655459240341872 0.01655459240341872 0.01655459240341872 0.01655459240341872 0.01065457313068277 0.01065457313068277 
0.01065457313068277 0.01065457313068277 0.004672940501219029 0.004672940501219029 0.004672940501219029 0.004672940501219029 -0.001617287215028352 -0.001617287215028352 -0.001617287215028352 
-0.001617287215028352 -0.008305637706940327 -0.008305637706940327 -0.008305637706940327 -0.008305637706940327 -0.01524563024386226 -0.01524563024386226 -0.01524563024386226 -0.01524563024386226 
-0.022147863899252 -0.022147863899252 -0.022147863899252 -0.022147863899252 -0.02877100013658348 -0.02877100013658348 -0.02877100013658348 -0.02877100013658348 -0.03503955393627611 
-0.03503955393627611 -0.03503955393627611 -0.03503955393627611 -0.04101611938526223 -0.04101611938526223 -0.04101611938526223 -0.04101611938526223 -0.04679440525266874 -0.04679440525266874 
-0.04679440525266874 -0.04679440525266874 -0.05241878200634887 -0.05241878200634887 -0.05241878200634887 -0.05241878200634887 -0.05787408932261855 -0.05787408932261855 -0.05787408932261855 
-0.05787408932261855 -0.06311826494979161 -0.06311826494979161 -0.06311826494979161 -0.06311826494979161 -0.06811310085573991 -0.06811310085573991 -0.06811310085573991 -0.06811310085573991 
-0.07283374275319204 -0.07283374275319204 -0.07283374275319204 -0.07283374275319204 -0.07726371469074245 -0.07726371469074245 -0.07726371469074245 -0.07726371469074245 -0.08138834979317507 
-0.08138834979317507 -0.08138834979317507 -0.08138834979317507 -0.08519238898189213 -0.08519238898189213 -0.08519238898189213 -0.08519238898189213 -0.0886606356764853 -0.0886606356764853 
-0.0886606356764853 -0.0886606356764853 -0.09177905987424012 -0.09177905987424012 -0.09177905987424012 -0.09177905987424012 -0.09453524063526909 -0.09453524063526909 -0.09453524063526909 
-0.09453524063526909 -0.09691833744028412 -0.09691833744028412 -0.09691833744028412 -0.09691833744028412 -0.09891899182763439 -0.09891899182763439 -0.09891899182763439 -0.09891899182763439 
-0.1005292830917916 -0.1005292830917916 -0.1005292830917916 -0.1005292830917916 -0.1017427012033348 -0.1017427012033348 -0.1017427012033348 -0.1017427012033348 -0.1025542300252383 
-0.1025542300252383 -0.1025542300252383 -0.1025542300252383 -0.1029607501198037 -0.1029607501198037 -0.1029607501198037 -0.1029607501198037 -0.1029611904843673 -0.1029611904843673 
-0.1029611904843673 -0.1029611904843673 -0.1025558478529582 -0.1025558478529582 -0.1025558478529582 -0.1025558478529582 -0.1017460143453999 -0.1017460143453999 -0.1017460143453999 
-0.1017460143453999 -0.100534457124972 -0.100534457124972 -0.100534457124972 -0.100534457124972 -0.0989258286122546 -0.0989258286122546 -0.0989258286122546 -0.0989258286122546 
-0.09692660370364117 -0.09692660370364117 -0.09692660370364117 -0.09692660370364117 -0.09454483171909295 -0.09454483171909295 -0.09454483171909295 -0.09454483171909295 -0.09178999118332079 
-0.09178999118332079 -0.09178999118332079 -0.09178999118332079 -0.08867296083728568 -0.08867296083728568 -0.08867296083728568 -0.08867296083728568 -0.08520601923319621 -0.08520601923319621 
-0.08520601923319621 -0.08520601923319621 -0.0814028265772809 -0.0814028265772809 -0.0814028265772809 -0.0814028265772809 -0.07727837927199192 -0.07727837927199192 -0.07727837927199192 
-0.07727837927199192 -0.07284894633021127 -0.07284894633021127 -0.07284894633021127 -0.07284894633021127 -0.06813200078356493 -0.06813200078356493 -0.06813200078356493 -0.06813200078356493 
-0.06314617037210112 -0.06314617037210112 -0.06314617037210112 -0.06314617037210112 -0.05791114117833686 -0.05791114117833686 -0.05791114117833686 -0.05791114117833686 -0.05244754027654965 
-0.05244754027654965 -0.05244754027654965 -0.05244754027654965 -0.04677701284019355 -0.04677701284019355 -0.04677701284019355 -0.04677701284019355 -0.04092202144784825 -0.04092202144784825 
-0.04092202144784825 -0.04092202144784825 -0.03490521961552182 -0.03490521961552182 -0.03490521961552182 -0.03490521961552182 -0.02874993102188703 -0.02874993102188703 -0.02874993102188703 
-0.02874993102188703 -0.02248142094280477 -0.02248142094280477 -0.02248142094280477 -0.02248142094280477 -0.01612613318540239 -0.01612613318540239 -0.01612613318540239 -0.01612613318540239 
-0.009709059888961688 -0.009709059888961688 -0.009709059888961688 -0.009709059888961688 -0.003252920902567499 -0.003252920902567499 -0.003252920902567499 -0.003252920902567499 0.003219257546869142 
0.003219257546869142 0.003219257546869142 0.003219257546869142 0.009681400244636502 0.009681400244636502 0.009681400244636502 0.009681400244636502 0.01610512474725992 0.01610512474725992 
0.01610512474725992 0.01610512474725992 0.0224628911374628 0.0224628911374628 0.0224628911374628 0.0224628911374628 0.02872984534066439 0.02872984534066439 0.02872984534066439 
0.02872984534066439 0.03488296343122878 0.03488296343122878 0.03488296343122878 0.03488296343122878 0.04089924426469853 0.04089924426469853 0.04089924426469853 0.04089924426469853 
0.04675503313133161 0.04675503313133161 0.04675503313133161 0.04675503313133161 0.05242665746384837 0.05242665746384837 0.05242665746384837 0.05242665746384837 0.05789128450904146 