Title = Result/Post/Linear_Advection_2D/FVM/MLP_u1_Least_Square/Sine_Wave_2D/Quad100/
FileType = Solution
Variables = q
Zone T = Result/Post/Linear_Advection_2D/FVM/MLP_u1_Least_Square/Sine_Wave_2D/Quad100/
ZoneType = FETriangle
Nodes = 40000
Elements = 20000
DataPacking = Block
StrandID = 13
SolutionTime = 1.2
-0.4938998281194582 -0.4938998281194582 -0.4938998281194582 -0.4938998281194582 -0.4858869743204817 -0.4858869743204817 -0.4858869743204817 -0.4858869743204817 -0.4727518995867988 -0.4727518995867988 
-0.4727518995867988 -0.4727518995867988 -0.4569991175698058 -0.4569991175698058 -0.4569991175698058 -0.4569991175698058 -0.4392701079226758 -0.4392701079226758 -0.4392701079226758 
-0.4392701079226758 -0.4197663981955566 -0.4197663981955566 -0.4197663981955566 -0.4197663981955566 -0.3985967761765798 -0.3985967761765798 -0.3985967761765798 -0.3985967761765798 
-0.3758545204812931 -0.3758545204812931 -0.3758545204812931 -0.3758545204812931 -0.3516357742504782 -0.3516357742504782 -0.3516357742504782 -0.3516357742504782 -0.3260447088269057 
-0.3260447088269057 -0.3260447088269057 -0.3260447088269057 -0.2991954313534677 -0.2991954313534677 -0.2991954313534677 -0.2991954313534677 -0.2712122642749596 -0.2712122642749596 
-0.2712122642749596 -0.2712122642749596 -0.2422281551986529 -0.2422281551986529 -0.2422281551986529 -0.2422281551986529 -0.2123807290140124 -0.2123807290140124 -0.2123807290140124 
-0.2123807290140124 -0.1818059224315996 -0.1818059224315996 -0.1818059224315996 -0.1818059224315996 -0.1506299809703989 -0.1506299809703989 -0.1506299809703989 -0.1506299809703989 
-0.1189615680077352 -0.1189615680077352 -0.1189615680077352 -0.1189615680077352 -0.08688642770253516 -0.08688642770253516 -0.08688642770253516 -0.08688642770253516 -0.05446705322065751 
-0.05446705322065751 -0.05446705322065751 -0.05446705322065751 -0.02174893253710001 -0.02174893253710001 -0.02174893253710001 -0.02174893253710001 0.01122671235210443 0.01122671235210443 
0.01122671235210443 0.01122671235210443 0.04440579397569592 0.04440579397569592 0.04440579397569592 0.04440579397569592 0.07770371087124457 0.07770371087124457 0.07770371087124457 
0.07770371087124457 0.1109919630384409 0.1109919630384409 0.1109919630384409 0.1109919630384409 0.1440933866358833 0.1440933866358833 0.1440933866358833 0.1440933866358833 
0.176788492685254 0.176788492685254 0.176788492685254 0.176788492685254 0.2088324557701508 0.2088324557701508 0.2088324557701508 0.2088324557701508 0.2399791424876129 
0.2399791424876129 0.2399791424876129 0.2399791424876129 0.2700062753676363 0.2700062753676363 0.2700062753676363 0.2700062753676363 0.2987352833975983 0.2987352833975983 
0.2987352833975983 0.2987352833975983 0.3260408863703179 0.3260408863703179 0.3260408863703179 0.3260408863703179 0.3518485257872512 0.3518485257872512 0.3518485257872512 
0.3518485257872512 0.3761213283753149 0.3761213283753149 0.3761213283753149 0.3761213283753149 0.3988411459473497 0.3988411459473497 0.3988411459473497 0.3988411459473497 
0.4199894508830653 0.4199894508830653 0.4199894508830653 0.4199894508830653 0.4395332079419589 0.4395332079419589 0.4395332079419589 0.4395332079419589 0.4574186995368971 
0.4574186995368971 0.4574186995368971 0.4574186995368971 0.4735735261605462 0.4735735261605462 0.4735735261605462 0.4735735261605462 0.4879146109492989 0.4879146109492989 
0.4879146109492989 0.4879146109492989 0.5003587355450855 0.5003587355450855 0.5003587355450855 0.5003587355450855 0.5108321355247472 0.5108321355247472 0.5108321355247472 
0.5108321355247472 0.5192768008521045 0.5192768008521045 0.5192768008521045 0.5192768008521045 0.5256525492092718 0.5256525492092718 0.5256525492092718 0.5256525492092718 
0.5299354852049314 0.5299354852049314 0.5299354852049314 0.5299354852049314 0.5321137234406282 0.5321137234406282 0.5321137234406282 0.5321137234406282 0.5321867598533105 
0.5321867598533105 0.5321867598533105 0.5321867598533105 0.5301622753086861 0.5301622753086861 0.5301622753086861 0.5301622753086861 0.5260486729964571 0.5260486729964571 
0.5260486729964571 0.5260486729964571 0.5198632032327265 0.5198632032327265 0.5198632032327265 0.5198632032327265 0.5116293530148279 0.5116293530148279 0.5116293530148279 
0.5116293530148279 0.5013779651101996 0.5013779651101996 0.5013779651101996 0.5013779651101996 0.4891479789480757 0.4891479789480757 0.4891479789480757 0.4891479789480757 
0.4749868066947702 0.4749868066947702 0.4749868066947702 0.4749868066947702 0.4589501323047996 0.4589501323047996 0.4589501323047996 0.4589501323047996 0.4411014806041036 
0.4411014806041036 0.4411014806041036 0.4411014806041036 0.4215116729907975 0.4215116729907975 0.4215116729907975 0.4215116729907975 0.4002583399736579 0.4002583399736579 
0.4002583399736579 0.4002583399736579 0.3774255237626135 0.3774255237626135 0.3774255237626135 0.3774255237626135 0.3531033579102335 0.3531033579102335 0.3531033579102335 
0.3531033579102335 0.3273877780761097 0.3273877780761097 0.3273877780761097 0.3273877780761097 0.3003802141317976 0.3003802141317976 0.3003802141317976 0.3003802141317976 
0.2721872229620492 0.2721872229620492 0.2721872229620492 0.2721872229620492 0.2429200496939956 0.2429200496939956 0.2429200496939956 0.2429200496939956 0.2126941502010936 
0.2126941502010936 0.2126941502010936 0.2126941502010936 0.1816287307820071 0.1816287307820071 0.1816287307820071 0.1816287307820071 0.1498463257819335 0.1498463257819335 
0.1498463257819335 0.1498463257819335 0.1174723664973308 0.1174723664973308 0.1174723664973308 0.1174723664973308 0.08463467543939092 0.08463467543939092 0.08463467543939092 
0.08463467543939092 0.0514628878452314 0.0514628878452314 0.0514628878452314 0.0514628878452314 0.01808788842574897 0.01808788842574897 0.01808788842574897 0.01808788842574897 
-0.01535865362540386 -0.01535865362540386 -0.01535865362540386 -0.01535865362540386 -0.04874467853367757 -0.04874467853367757 -0.04874467853367757 -0.04874467853367757 -0.08193818665190467 
-0.08193818665190467 -0.08193818665190467 -0.08193818665190467 -0.1148078455046873 -0.1148078455046873 -0.1148078455046873 -0.1148078455046873 -0.1472237107539423 -0.1472237107539423 
-0.1472237107539423 -0.1472237107539423 -0.1790579029237768 -0.1790579029237768 -0.1790579029237768 -0.1790579029237768 -0.2101851067342512 -0.2101851067342512 -0.2101851067342512 
-0.2101851067342512 -0.2404828980465463 -0.2404828980465463 -0.2404828980465463 -0.2404828980465463 -0.2698320234699941 -0.2698320234699941 -0.2698320234699941 -0.2698320234699941 
-0.2981167617322006 -0.2981167617322006 -0.2981167617322006 -0.2981167617322006 -0.3252254031931291 -0.3252254031931291 -0.3252254031931291 -0.3252254031931291 -0.3510507895492701 
-0.3510507895492701 -0.3510507895492701 -0.3510507895492701 -0.3754908306764575 -0.3754908306764575 -0.3754908306764575 -0.3754908306764575 -0.3984489538831269 -0.3984489538831269 
-0.3984489538831269 -0.3984489538831269 -0.4198344900199545 -0.4198344900199545 -0.4198344900199545 -0.4198344900199545 -0.4395630201227815 -0.4395630201227815 -0.4395630201227815 
-0.4395630201227815 -0.4575566972282794 -0.4575566972282794 -0.4575566972282794 -0.4575566972282794 -0.4737445403930023 -0.4737445403930023 -0.4737445403930023 -0.4737445403930023 
-0.4880627033857537 -0.4880627033857537 -0.4880627033857537 -0.4880627033857537 -0.5004546969619115 -0.5004546969619115 -0.5004546969619115 -0.5004546969619115 -0.5108716947172997 
-0.5108716947172997 -0.5108716947172997 -0.5108716947172997 -0.5192724501264463 -0.5192724501264463 -0.5192724501264463 -0.5192724501264463 -0.5256247420643583 -0.5256247420643583 
-0.5256247420643583 -0.5256247420643583 -0.5299000721532374 -0.5299000721532374 -0.5299000721532374 -0.5299000721532374 -0.532093822980122 -0.532093822980122 -0.532093822980122 
-0.532093822980122 -0.5321453559776572 -0.5321453559776572 -0.5321453559776572 -0.5321453559776572 -0.5302626509603877 -0.5302626509603877 -0.5302626509603877 -0.5302626509603877 
-0.5256533663348664 -0.5256533663348664 -0.5256533663348664 -0.5256533663348664 -0.5213709656328036 -0.5213709656328036 -0.5213709656328036 -0.5213709656328036 -0.5060579516454236 
-0.5060579516454236 -0.5060579516454236 -0.5060579516454236 -0.463467481828042 -0.463467481828042 -0.463467481828042 -0.463467481828042 -0.455841799988812 -0.455841799988812 
-0.455841799988812 -0.455841799988812 -0.4434808068290735 -0.4434808068290735 -0.4434808068290735 -0.4434808068290735 -0.4287141125173076 -0.4287141125173076 -0.4287141125173076 
-0.4287141125173076 -0.4121004894782873 -0.4121004894782873 -0.4121004894782873 -0.4121004894782873 -0.3938183449507286 -0.3938183449507286 -0.3938183449507286 -0.3938183449507286 
-0.373967069028046 -0.373967069028046 -0.373967069028046 -0.373967069028046 -0.3526348008043386 -0.3526348008043386 -0.3526348008043386 -0.3526348008043386 -0.3299134578291236 
-0.3299134578291236 -0.3299134578291236 -0.3299134578291236 -0.3059025556806881 -0.3059025556806881 -0.3059025556806881 -0.3059025556806881 -0.2807105294621949 -0.2807105294621949 
-0.2807105294621949 -0.2807105294621949 -0.2544548609033154 -0.2544548609033154 -0.2544548609033154 -0.2544548609033154 -0.2272606373462048 -0.2272606373462048 -0.2272606373462048 
-0.2272606373462048 -0.1992569802952711 -0.1992569802952711 -0.1992569802952711 -0.1992569802952711 -0.170571226788903 -0.170571226788903 -0.170571226788903 -0.170571226788903 
-0.1413215670655022 -0.1413215670655022 -0.1413215670655022 -0.1413215670655022 -0.1116097624028472 -0.1116097624028472 -0.1116097624028472 -0.1116097624028472 -0.08151621265123254 
-0.08151621265123254 -0.08151621265123254 -0.08151621265123254 -0.05109965674291953 -0.05109965674291953 -0.05109965674291953 -0.05109965674291953 -0.02040298585575894 -0.02040298585575894 
-0.02040298585575894 -0.02040298585575894 0.01053488362975178 0.01053488362975178 0.01053488362975178 0.01053488362975178 0.04166301908916292 0.04166301908916292 0.04166301908916292 
0.04166301908916292 0.07290197978424458 0.07290197978424458 0.07290197978424458 0.07290197978424458 0.1041312989467431 0.1041312989467431 0.1041312989467431 0.1041312989467431 
0.1351850126879246 0.1351850126879246 0.1351850126879246 0.1351850126879246 0.1658575547404322 0.1658575547404322 0.1658575547404322 0.1658575547404322 0.1959195970059918 
0.1959195970059918 0.1959195970059918 0.1959195970059918 0.225140482121773 0.225140482121773 0.225140482121773 0.225140482121773 0.2533117552127577 0.2533117552127577 
0.2533117552127577 0.2533117552127577 0.2802657761433023 0.2802657761433023 0.2802657761433023 0.2802657761433023 0.305884764189613 0.305884764189613 0.305884764189613 
0.305884764189613 0.330098475333858 0.330098475333858 0.330098475333858 0.330098475333858 0.3528720574913164 0.3528720574913164 0.3528720574913164 0.3528720574913164 
0.3741883206025459 0.3741883206025459 0.3741883206025459 0.3741883206025459 0.3940298340375708 0.3940298340375708 0.3940298340375708 0.3940298340375708 0.4123656583584971 
0.4123656583584971 0.4123656583584971 0.4123656583584971 0.4291455146942292 0.4291455146942292 0.4291455146942292 0.4291455146942292 0.4443016140328631 0.4443016140328631 
0.4443016140328631 0.4443016140328631 0.457756126363452 0.457756126363452 0.457756126363452 0.457756126363452 0.4694310468559066 0.4694310468559066 0.4694310468559066 
0.4694310468559066 0.4792572020593493 0.4792572020593493 0.4792572020593493 0.4792572020593493 0.4871801532558165 0.4871801532558165 0.4871801532558165 0.4871801532558165 
0.4931620818759576 0.4931620818759576 0.4931620818759576 0.4931620818759576 0.4971802584738467 0.4971802584738467 0.4971802584738467 0.4971802584738467 0.4992240778967018 
0.4992240778967018 0.4992240778967018 0.4992240778967018 0.4992932133730166 0.4992932133730166 0.4992932133730166 0.4992932133730166 0.4973935204146938 0.4973935204146938 
0.4973935204146938 0.4973935204146938 0.493534525534386 0.493534525534386 0.493534525534386 0.493534525534386 0.4877316088600558 0.4877316088600558 0.4877316088600558 
0.4877316088600558 0.4800068405198498 0.4800068405198498 0.4800068405198498 0.4800068405198498 0.4703891945869199 0.4703891945869199 0.4703891945869199 0.4703891945869199 
0.4589152593740898 0.4589152593740898 0.4589152593740898 0.4589152593740898 0.4456295145149846 0.4456295145149846 0.4456295145149846 0.4456295145149846 0.4305841965403582 
0.4305841965403582 0.4305841965403582 0.4305841965403582 0.4138388943733318 0.4138388943733318 0.4138388943733318 0.4138388943733318 0.3954600449664426 0.3954600449664426 
0.3954600449664426 0.3954600449664426 0.3755204748636945 0.3755204748636945 0.3755204748636945 0.3755204748636945 0.3540990280128888 0.3540990280128888 0.3540990280128888 
0.3540990280128888 0.3312802693306651 0.3312802693306651 0.3312802693306651 0.3312802693306651 0.3071542178489198 0.3071542178489198 0.3071542178489198 0.3071542178489198 
0.2818160548559649 0.2818160548559649 0.2818160548559649 0.2818160548559649 0.2553657612317136 0.2553657612317136 0.2553657612317136 0.2553657612317136 0.2279076818922269 
0.2279076818922269 0.2279076818922269 0.2279076818922269 0.1995500768466922 0.1995500768466922 0.1995500768466922 0.1995500768466922 0.1704047313037247 0.1704047313037247 
0.1704047313037247 0.1704047313037247 0.1405866193877998 0.1405866193877998 0.1405866193877998 0.1405866193877998 0.1102135152241533 0.1102135152241533 0.1102135152241533 
0.1102135152241533 0.07940545246272715 0.07940545246272715 0.07940545246272715 0.07940545246272715 0.04828407813449193 0.04828407813449193 0.04828407813449193 0.04828407813449193 
0.01697208231921344 0.01697208231921344 0.01697208231921344 0.01697208231921344 -0.01440716265706121 -0.01440716265706121 -0.01440716265706121 -0.01440716265706121 -0.0457298342185551 
-0.0457298342185551 -0.0457298342185551 -0.0457298342185551 -0.07687200556455287 -0.07687200556455287 -0.07687200556455287 -0.07687200556455287 -0.1077102720952486 -0.1077102720952486 
-0.1077102720952486 -0.1077102720952486 -0.1381225705317823 -0.1381225705317823 -0.1381225705317823 -0.1381225705317823 -0.1679889207017032 -0.1679889207017032 -0.1679889207017032 
-0.1679889207017032 -0.1971918832385274 -0.1971918832385274 -0.1971918832385274 -0.1971918832385274 -0.2256167620886332 -0.2256167620886332 -0.2256167620886332 -0.2256167620886332 
-0.2531517631272094 -0.2531517631272094 -0.2531517631272094 -0.2531517631272094 -0.2796883040716531 -0.2796883040716531 -0.2796883040716531 -0.2796883040716531 -0.3051215096996244 
-0.3051215096996244 -0.3051215096996244 -0.3051215096996244 -0.3293507831788561 -0.3293507831788561 -0.3293507831788561 -0.3293507831788561 -0.3522803240790915 -0.3522803240790915 
-0.3522803240790915 -0.3522803240790915 -0.3738195407172286 -0.3738195407172286 -0.3738195407172286 -0.3738195407172286 -0.3938833850746691 -0.3938833850746691 -0.3938833850746691 
-0.3938833850746691 -0.4123926598714738 -0.4123926598714738 -0.4123926598714738 -0.4123926598714738 -0.4292743204355858 -0.4292743204355858 -0.4292743204355858 -0.4292743204355858 
-0.4444617604787342 -0.4444617604787342 -0.4444617604787342 -0.4444617604787342 -0.4578950733582084 -0.4578950733582084 -0.4578950733582084 -0.4578950733582084 -0.4695212697818641 
-0.4695212697818641 -0.4695212697818641 -0.4695212697818641 -0.4792945630210879 -0.4792945630210879 -0.4792945630210879 -0.4792945630210879 -0.4871762899350721 -0.4871762899350721 
-0.4871762899350721 -0.4871762899350721 -0.493136090073462 -0.493136090073462 -0.493136090073462 -0.493136090073462 -0.4971472033051164 -0.4971472033051164 -0.4971472033051164 
-0.4971472033051164 -0.4992049073817301 -0.4992049073817301 -0.4992049073817301 -0.4992049073817301 -0.4992561296815659 -0.4992561296815659 -0.4992561296815659 -0.4992561296815659 
-0.4974807107407029 -0.4974807107407029 -0.4974807107407029 -0.4974807107407029 -0.493188378155473 -0.493188378155473 -0.493188378155473 -0.493188378155473 -0.4890755307113993 
-0.4890755307113993 -0.4890755307113993 -0.4890755307113993 -0.4748646122609628 -0.4748646122609628 -0.4748646122609628 -0.4748646122609628 -0.417122694389838 -0.417122694389838 
-0.417122694389838 -0.417122694389838 -0.410306740082451 -0.410306740082451 -0.410306740082451 -0.410306740082451 -0.3991501713631658 -0.3991501713631658 -0.3991501713631658 
-0.3991501713631658 -0.3858316134694199 -0.3858316134694199 -0.3858316134694199 -0.3858316134694199 -0.370868772518636 -0.370868772518636 -0.370868772518636 -0.370868772518636 
-0.3544175159110968 -0.3544175159110968 -0.3544175159110968 -0.3544175159110968 -0.3365606167841171 -0.3365606167841171 -0.3365606167841171 -0.3365606167841171 -0.3173719869988179 
-0.3173719869988179 -0.3173719869988179 -0.3173719869988179 -0.2969311257605836 -0.2969311257605836 -0.2969311257605836 -0.2969311257605836 -0.2753263361152688 -0.2753263361152688 
-0.2753263361152688 -0.2753263361152688 -0.2526552895488552 -0.2526552895488552 -0.2526552895488552 -0.2526552895488552 -0.2290244942837926 -0.2290244942837926 -0.2290244942837926 
-0.2290244942837926 -0.2045474971206308 -0.2045474971206308 -0.2045474971206308 -0.2045474971206308 -0.1793413563464568 -0.1793413563464568 -0.1793413563464568 -0.1793413563464568 
-0.1535212695719002 -0.1535212695719002 -0.1535212695719002 -0.1535212695719002 -0.127193954119848 -0.127193954119848 -0.127193954119848 -0.127193954119848 -0.1004511805623603 
-0.1004511805623603 -0.1004511805623603 -0.1004511805623603 -0.0733654247982824 -0.0733654247982824 -0.0733654247982824 -0.0733654247982824 -0.04598963816749719 -0.04598963816749719 
-0.04598963816749719 -0.04598963816749719 -0.0183624653845345 -0.0183624653845345 -0.0183624653845345 -0.0183624653845345 0.009481099438127701 0.009481099438127701 0.009481099438127701 
0.009481099438127701 0.03749533448337652 0.03749533448337652 0.03749533448337652 0.03749533448337652 0.06560894456244232 0.06560894456244232 0.06560894456244232 0.06560894456244232 
0.09371378602491343 0.09371378602491343 0.09371378602491343 0.09371378602491343 0.1216608195502077 0.1216608195502077 0.1216608195502077 0.1216608195502077 0.1492653556269319 
0.1492653556269319 0.1492653556269319 0.1492653556269319 0.1763212145688055 0.1763212145688055 0.1763212145688055 0.1763212145688055 0.2026208251730063 0.2026208251730063 
0.2026208251730063 0.2026208251730063 0.2279763778904466 0.2279763778904466 0.2279763778904466 0.2279763778904466 0.2522366427255829 0.2522366427255829 0.2522366427255829 
0.2522366427255829 0.2752952388045906 0.2752952388045906 0.2752952388045906 0.2752952388045906 0.2970886709106607 0.2970886709106607 0.2970886709106607 0.2970886709106607 
0.317585468538405 0.317585468538405 0.317585468538405 0.317585468538405 0.3367702245211166 0.3367702245211166 0.3367702245211166 0.3367702245211166 0.3546274246873751 
0.3546274246873751 0.3546274246873751 0.3546274246873751 0.3711294293949266 0.3711294293949266 0.3711294293949266 0.3711294293949266 0.3862311591529606 0.3862311591529606 
0.3862311591529606 0.3862311591529606 0.3998717016475982 0.3998717016475982 0.3998717016475982 0.3998717016475982 0.4119810284316008 0.4119810284316008 0.4119810284316008 
0.4119810284316008 0.4224888960426249 0.4224888960426249 0.4224888960426249 0.4224888960426249 0.4313329774704793 0.4313329774704793 0.4313329774704793 0.4313329774704793 
0.438464167724805 0.438464167724805 0.438464167724805 0.438464167724805 0.4438482930664104 0.4438482930664104 0.4438482930664104 0.4438482930664104 0.4474648907121332 
0.4474648907121332 0.4474648907121332 0.4474648907121332 0.449304713721115 0.449304713721115 0.449304713721115 0.449304713721115 0.4493672487741157 0.4493672487741157 
0.4493672487741157 0.4493672487741157 0.447657569583316 0.447657569583316 0.447657569583316 0.447657569583316 0.4441846556760026 0.4441846556760026 0.4441846556760026 
0.4441846556760026 0.4389623569746517 0.4389623569746517 0.4389623569746517 0.4389623569746517 0.432010328940154 0.432010328940154 0.432010328940154 0.432010328940154 
0.423354648022529 0.423354648022529 0.423354648022529 0.423354648022529 0.4130282820813314 0.4130282820813314 0.4130282820813314 0.4130282820813314 0.4010712772801673 
0.4010712772801673 0.4010712772801673 0.4010712772801673 0.3875306477390169 0.3875306477390169 0.3875306477390169 0.3875306477390169 0.3724600115996582 0.3724600115996582 
0.3724600115996582 0.3724600115996582 0.3559191488907461 0.3559191488907461 0.3559191488907461 0.3559191488907461 0.3379735946784948 0.3379735946784948 0.3379735946784948 
0.3379735946784948 0.3186943139291106 0.3186943139291106 0.3186943139291106 0.3186943139291106 0.2981574425269585 0.2981574425269585 0.2981574425269585 0.2981574425269585 
0.2764440421480309 0.2764440421480309 0.2764440421480309 0.2764440421480309 0.2536398076701937 0.2536398076701937 0.2536398076701937 0.2536398076701937 0.2298346922495825 
0.2298346922495825 0.2298346922495825 0.2298346922495825 0.2051224905299957 0.2051224905299957 0.2051224905299957 0.2051224905299957 0.179600487929502 0.179600487929502 
0.179600487929502 0.179600487929502 0.153369239430911 0.153369239430911 0.153369239430911 0.153369239430911 0.1265323728505793 0.1265323728505793 0.1265323728505793 
0.1265323728505793 0.09919618922899254 0.09919618922899254 0.09919618922899254 0.09919618922899254 0.07146895354516626 0.07146895354516626 0.07146895354516626 0.07146895354516626 
0.04346008230332838 0.04346008230332838 0.04346008230332838 0.04346008230332838 0.01527961651266923 0.01527961651266923 0.01527961651266923 0.01527961651266923 -0.01296183932938005 
-0.01296183932938005 -0.01296183932938005 -0.01296183932938005 -0.04115298241205863 -0.04115298241205863 -0.04115298241205863 -0.04115298241205863 -0.06918199321890334 -0.06918199321890334 
-0.06918199321890334 -0.06918199321890334 -0.09693730166853912 -0.09693730166853912 -0.09693730166853912 -0.09693730166853912 -0.1243086902673653 -0.1243086902673653 -0.1243086902673653 
-0.1243086902673653 -0.1511881932421161 -0.1511881932421161 -0.1511881932421161 -0.1511881932421161 -0.1774704433145048 -0.1774704433145048 -0.1774704433145048 -0.1774704433145048 
-0.2030525851342196 -0.2030525851342196 -0.2030525851342196 -0.2030525851342196 -0.2278341788618118 -0.2278341788618118 -0.2278341788618118 -0.2278341788618118 -0.2517174315457611 
-0.2517174315457611 -0.2517174315457611 -0.2517174315457611 -0.2746077681290973 -0.2746077681290973 -0.2746077681290973 -0.2746077681290973 -0.2964145052752715 -0.2964145052752715 
-0.2964145052752715 -0.2964145052752715 -0.3170513914289537 -0.3170513914289537 -0.3170513914289537 -0.3170513914289537 -0.3364369470975733 -0.3364369470975733 -0.3364369470975733 
-0.3364369470975733 -0.3544946921486723 -0.3544946921486723 -0.3544946921486723 -0.3544946921486723 -0.3711533725020718 -0.3711533725020718 -0.3711533725020718 -0.3711533725020718 
-0.3863472300081073 -0.3863472300081073 -0.3863472300081073 -0.3863472300081073 -0.4000162872293136 -0.4000162872293136 -0.4000162872293136 -0.4000162872293136 -0.4121066110511511 
-0.4121066110511511 -0.4121066110511511 -0.4121066110511511 -0.4225705205554424 -0.4225705205554424 -0.4225705205554424 -0.4225705205554424 -0.4313668295061327 -0.4313668295061327 
-0.4313668295061327 -0.4313668295061327 -0.4384607247978924 -0.4384607247978924 -0.4384607247978924 -0.4384607247978924 -0.4438248013648134 -0.4438248013648134 -0.4438248013648134 
-0.4438248013648134 -0.4474350034780626 -0.4474350034780626 -0.4474350034780626 -0.4474350034780626 -0.4492873052188157 -0.4492873052188157 -0.4492873052188157 -0.4492873052188157 
-0.4493338483169323 -0.4493338483169323 -0.4493338483169323 -0.4493338483169323 -0.4477359778217581 -0.4477359778217581 -0.4477359778217581 -0.4477359778217581 -0.4438721307527368 
-0.4438721307527368 -0.4438721307527368 -0.4438721307527368 -0.4401813105494517 -0.4401813105494517 -0.4401813105494517 -0.4401813105494517 -0.4273804997227418 -0.4273804997227418 
-0.4273804997227418 -0.4273804997227418 -0.3658659827857429 -0.3658659827857429 -0.3658659827857429 -0.3658659827857429 -0.3599155125707674 -0.3599155125707674 -0.3599155125707674 
-0.3599155125707674 -0.350144496552666 -0.350144496552666 -0.350144496552666 -0.350144496552666 -0.3384530302856026 -0.3384530302856026 -0.3384530302856026 -0.3384530302856026 
-0.3253119618353276 -0.3253119618353276 -0.3253119618353276 -0.3253119618353276 -0.3108687021534338 -0.3108687021534338 -0.3108687021534338 -0.3108687021534338 -0.2951998888801411 
-0.2951998888801411 -0.2951998888801411 -0.2951998888801411 -0.278370032917545 -0.278370032917545 -0.278370032917545 -0.278370032917545 -0.2604463627330552 -0.2604463627330552 
-0.2604463627330552 -0.2604463627330552 -0.2415033587518432 -0.2415033587518432 -0.2415033587518432 -0.2415033587518432 -0.2216242889480843 -0.2216242889480843 -0.2216242889480843 
-0.2216242889480843 -0.2009011719980278 -0.2009011719980278 -0.2009011719980278 -0.2009011719980278 -0.1794331817044785 -0.1794331817044785 -0.1794331817044785 -0.1794331817044785 
-0.157323283156231 -0.157323283156231 -0.157323283156231 -0.157323283156231 -0.1346731875459675 -0.1346731875459675 -0.1346731875459675 -0.1346731875459675 -0.1115772849049563 
-0.1115772849049563 -0.1115772849049563 -0.1115772849049563 -0.08811682036535606 -0.08811682036535606 -0.08811682036535606 -0.08811682036535606 -0.06435599285403044 -0.06435599285403044 
-0.06435599285403044 -0.06435599285403044 -0.04034167985417582 -0.04034167985417582 -0.04034167985417582 -0.04034167985417582 -0.01610795949576833 -0.01610795949576833 -0.01610795949576833 
-0.01610795949576833 0.008314539740064594 0.008314539740064594 0.008314539740064594 0.008314539740064594 0.03288596087121973 0.03288596087121973 0.03288596087121973 0.03288596087121973 
0.05754411464078422 0.05754411464078422 0.05754411464078422 0.05754411464078422 0.08219453922631918 0.08219453922631918 0.08219453922631918 0.08219453922631918 0.1067069206692393 
0.1067069206692393 0.1067069206692393 0.1067069206692393 0.1309196327648839 0.1309196327648839 0.1309196327648839 0.1309196327648839 0.1546520444687824 0.1546520444687824 
0.1546520444687824 0.1546520444687824 0.1777220391112815 0.1777220391112815 0.1777220391112815 0.1777220391112815 0.1999645496677431 0.1999645496677431 0.1999645496677431 
0.1999645496677431 0.2212464218241556 0.2212464218241556 0.2212464218241556 0.2212464218241556 0.2414738596276524 0.2414738596276524 0.2414738596276524 0.2414738596276524 
0.2605908745831684 0.2605908745831684 0.2605908745831684 0.2605908745831684 0.2785698302722555 0.2785698302722555 0.2785698302722555 0.2785698302722555 0.2953974005382821 
0.2953974005382821 0.2953974005382821 0.2953974005382821 0.3110602760894426 0.3110602760894426 0.3110602760894426 0.3110602760894426 0.3255345048478485 0.3255345048478485 
0.3255345048478485 0.3255345048478485 0.338780747361946 0.338780747361946 0.338780747361946 0.338780747361946 0.3507456538277928 0.3507456538277928 0.3507456538277928 
0.3507456538277928 0.3613677687033104 0.3613677687033104 0.3613677687033104 0.3613677687033104 0.3705853766359204 0.3705853766359204 0.3705853766359204 0.3705853766359204 
0.3783436741049928 0.3783436741049928 0.3783436741049928 0.3783436741049928 0.384599444905695 0.384599444905695 0.384599444905695 0.384599444905695 0.3893226115478724 
0.3893226115478724 0.3893226115478724 0.3893226115478724 0.3924952493106886 0.3924952493106886 0.3924952493106886 0.3924952493106886 0.3941093877313569 0.3941093877313569 
0.3941093877313569 0.3941093877313569 0.3941645161724075 0.3941645161724075 0.3941645161724075 0.3941645161724075 0.3926650329180182 0.3926650329180182 0.3926650329180182 
0.3926650329180182 0.3896190208734605 0.3896190208734605 0.3896190208734605 0.3896190208734605 0.3850386391056764 0.3850386391056764 0.3850386391056764 0.3850386391056764 
0.3789410223577588 0.3789410223577588 0.3789410223577588 0.3789410223577588 0.3713490037287591 0.3713490037287591 0.3713490037287591 0.3713490037287591 0.3622915058493414 
0.3622915058493414 0.3622915058493414 0.3622915058493414 0.3518036767888935 0.3518036767888935 0.3518036767888935 0.3518036767888935 0.3399267585258024 0.3399267585258024 
0.3399267585258024 0.3399267585258024 0.3267077695992729 0.3267077695992729 0.3267077695992729 0.3267077695992729 0.312199130686431 0.312199130686431 0.312199130686431 
0.312199130686431 0.2964583264939743 0.2964583264939743 0.2964583264939743 0.2964583264939743 0.2795476384313077 0.2795476384313077 0.2795476384313077 0.2795476384313077 
0.2615339159132513 0.2615339159132513 0.2615339159132513 0.2615339159132513 0.2424883237550532 0.2424883237550532 0.2424883237550532 0.2424883237550532 0.2224860123154261 
0.2224860123154261 0.2224860123154261 0.2224860123154261 0.2016057252420148 0.2016057252420148 0.2016057252420148 0.2016057252420148 0.1799294654347968 0.1799294654347968 
0.1799294654347968 0.1799294654347968 0.1575423658054015 0.1575423658054015 0.1575423658054015 0.1575423658054015 0.1345327367823313 0.1345327367823313 0.1345327367823313 
0.1345327367823313 0.1109919773006765 0.1109919773006765 0.1109919773006765 0.1109919773006765 0.08701397073965139 0.08701397073965139 0.08701397073965139 0.08701397073965139 
0.06269396784192587 0.06269396784192587 0.06269396784192587 0.06269396784192587 0.03812752409299216 0.03812752409299216 0.03812752409299216 0.03812752409299216 0.01341020015474594 
0.01341020015474594 0.01341020015474594 0.01341020015474594 -0.0113618474544358 -0.0113618474544358 -0.0113618474544358 -0.0113618474544358 -0.03609110166611601 -0.03609110166611601 
-0.03609110166611601 -0.03609110166611601 -0.06067873090476398 -0.06067873090476398 -0.06067873090476398 -0.06067873090476398 -0.08502578966203723 -0.08502578966203723 -0.08502578966203723 
-0.08502578966203723 -0.1090349336364755 -0.1090349336364755 -0.1090349336364755 -0.1090349336364755 -0.1326115958617615 -0.1326115958617615 -0.1326115958617615 -0.1326115958617615 