Title = Result/Post/Linear_Advection_2D/FVM/MLP_u1_Least_Square/Sine_Wave_2D/Quad100/
FileType = Solution
Variables = q
Zone T = Result/Post/Linear_Advection_2D/FVM/MLP_u1_Least_Square/Sine_Wave_2D/Quad100/
ZoneType = FETriangle
Nodes = 40000
Elements = 20000
DataPacking = Block
StrandID = 20
SolutionTime = 1.9
0.2283097765011612 0.2283097765011612 0.2283097765011612 0.2283097765011612 0.239044440422443 0.239044440422443 0.239044440422443 0.239044440422443 0.2539711429813527 0.2539711429813527 
0.2539711429813527 0.2539711429813527 0.2690402877962077 0.2690402877962077 0.2690402877962077 0.2690402877962077 0.2832787343591809 0.2832787343591809 0.2832787343591809 
0.2832787343591809 0.2964435306995518 0.2964435306995518 0.2964435306995518 0.2964435306995518 0.3084600886310456 0.3084600886310456 0.3084600886310456 0.3084600886310456 
0.3192891759222946 0.3192891759222946 0.3192891759222946 0.3192891759222946 0.3288954635887785 0.3288954635887785 0.3288954635887785 0.3288954635887785 0.3372413257977234 
0.3372413257977234 0.3372413257977234 0.3372413257977234 0.3442875608932672 0.3442875608932672 0.3442875608932672 0.3442875608932672 0.3499962229399958 0.3499962229399958 
0.3499962229399958 0.3499962229399958 0.3543337569680671 0.3543337569680671 0.3543337569680671 0.3543337569680671 0.3572734379942762 0.3572734379942762 0.3572734379942762 
0.3572734379942762 0.3587963389029994 0.3587963389029994 0.3587963389029994 0.3587963389029994 0.3588942709151637 0.3588942709151637 0.3588942709151637 0.3588942709151637 
0.3575688972383269 0.3575688972383269 0.3575688972383269 0.3575688972383269 0.3548250156263184 0.3548250156263184 0.3548250156263184 0.3548250156263184 0.350676799858166 
0.350676799858166 0.350676799858166 0.350676799858166 0.3451436134630799 0.3451436134630799 0.3451436134630799 0.3451436134630799 0.3382493791570559 0.3382493791570559 
0.3382493791570559 0.3382493791570559 0.3300222588997463 0.3300222588997463 0.3300222588997463 0.3300222588997463 0.3204947803254568 0.3204947803254568 0.3204947803254568 
0.3204947803254568 0.3097040177939761 0.3097040177939761 0.3097040177939761 0.3097040177939761 0.2976918262208865 0.2976918262208865 0.2976918262208865 0.2976918262208865 
0.2845049516061305 0.2845049516061305 0.2845049516061305 0.2845049516061305 0.2701950042483601 0.2701950042483601 0.2701950042483601 0.2701950042483601 0.2548182877691018 
0.2548182877691018 0.2548182877691018 0.2548182877691018 0.2384355249582583 0.2384355249582583 0.2384355249582583 0.2384355249582583 0.2211115273977067 0.2211115273977067 
0.2211115273977067 0.2211115273977067 0.2029148488602698 0.2029148488602698 0.2029148488602698 0.2029148488602698 0.1839174463333381 0.1839174463333381 0.1839174463333381 
0.1839174463333381 0.1641943567752847 0.1641943567752847 0.1641943567752847 0.1641943567752847 0.1438233902728965 0.1438233902728965 0.1438233902728965 0.1438233902728965 
0.1228848391123004 0.1228848391123004 0.1228848391123004 0.1228848391123004 0.1014612017813107 0.1014612017813107 0.1014612017813107 0.1014612017813107 0.0796369150955976 
0.0796369150955976 0.0796369150955976 0.0796369150955976 0.0574980772951084 0.0574980772951084 0.0574980772951084 0.0574980772951084 0.03513213795795468 0.03513213795795468 
0.03513213795795468 0.03513213795795468 0.01262753617235738 0.01262753617235738 0.01262753617235738 0.01262753617235738 -0.009926711477644599 -0.009926711477644599 -0.009926711477644599 
-0.009926711477644599 -0.03244144630701919 -0.03244144630701919 -0.03244144630701919 -0.03244144630701919 -0.05482778487279892 -0.05482778487279892 -0.05482778487279892 -0.05482778487279892 
-0.07699748386189993 -0.07699748386189993 -0.07699748386189993 -0.07699748386189993 -0.09886324431165429 -0.09886324431165429 -0.09886324431165429 -0.09886324431165429 -0.1203389770391103 
-0.1203389770391103 -0.1203389770391103 -0.1203389770391103 -0.1413400672731559 -0.1413400672731559 -0.1413400672731559 -0.1413400672731559 -0.1617836701779998 -0.1617836701779998 
-0.1617836701779998 -0.1617836701779998 -0.181589046163838 -0.181589046163838 -0.181589046163838 -0.181589046163838 -0.2006779207301196 -0.2006779207301196 -0.2006779207301196 
-0.2006779207301196 -0.2189748416506682 -0.2189748416506682 -0.2189748416506682 -0.2189748416506682 -0.236407510445955 -0.236407510445955 -0.236407510445955 -0.236407510445955 
-0.2529070789753412 -0.2529070789753412 -0.2529070789753412 -0.2529070789753412 -0.268408415317239 -0.268408415317239 -0.268408415317239 -0.268408415317239 -0.2828503488708304 
-0.2828503488708304 -0.2828503488708304 -0.2828503488708304 -0.2961759020477177 -0.2961759020477177 -0.2961759020477177 -0.2961759020477177 -0.3083325101176325 -0.3083325101176325 
-0.3083325101176325 -0.3083325101176325 -0.3192722252277586 -0.3192722252277586 -0.3192722252277586 -0.3192722252277586 -0.3289519012985059 -0.3289519012985059 -0.3289519012985059 
-0.3289519012985059 -0.3373333624726979 -0.3373333624726979 -0.3373333624726979 -0.3373333624726979 -0.3443835545108566 -0.3443835545108566 -0.3443835545108566 -0.3443835545108566 
-0.3500747055829575 -0.3500747055829575 -0.3500747055829575 -0.3500747055829575 -0.3543844240830126 -0.3543844240830126 -0.3543844240830126 -0.3543844240830126 -0.357295602239678 
-0.357295602239678 -0.357295602239678 -0.357295602239678 -0.3587958327188306 -0.3587958327188306 -0.3587958327188306 -0.3587958327188306 -0.3588800036416591 -0.3588800036416591 
-0.3588800036416591 -0.3588800036416591 -0.3575496294584816 -0.3575496294584816 -0.3575496294584816 -0.3575496294584816 -0.354807451690785 -0.354807451690785 -0.354807451690785 
-0.354807451690785 -0.3506646795277073 -0.3506646795277073 -0.3506646795277073 -0.3506646795277073 -0.3451378564677298 -0.3451378564677298 -0.3451378564677298 -0.3451378564677298 
-0.3382488411972367 -0.3382488411972367 -0.3382488411972367 -0.3382488411972367 -0.330024705753066 -0.330024705753066 -0.330024705753066 -0.330024705753066 -0.3204977589563649 
-0.3204977589563649 -0.3204977589563649 -0.3204977589563649 -0.3097054830633507 -0.3097054830633507 -0.3097054830633507 -0.3097054830633507 -0.2976905607826318 -0.2976905607826318 
-0.2976905607826318 -0.2976905607826318 -0.2845009536922027 -0.2845009536922027 -0.2845009536922027 -0.2845009536922027 -0.2701900768576166 -0.2701900768576166 -0.2701900768576166 
-0.2701900768576166 -0.2548170300776865 -0.2548170300776865 -0.2548170300776865 -0.2548170300776865 -0.2384468069751355 -0.2384468069751355 -0.2384468069751355 -0.2384468069751355 
-0.2211503406130245 -0.2211503406130245 -0.2211503406130245 -0.2211503406130245 -0.2030042018774076 -0.2030042018774076 -0.2030042018774076 -0.2030042018774076 -0.1840897616113693 
-0.1840897616113693 -0.1840897616113693 -0.1840897616113693 -0.1644916796890625 -0.1644916796890625 -0.1644916796890625 -0.1644916796890625 -0.1442957083917537 -0.1442957083917537 
-0.1442957083917537 -0.1442957083917537 -0.1235859784243891 -0.1235859784243891 -0.1235859784243891 -0.1235859784243891 -0.1024421499827545 -0.1024421499827545 -0.1024421499827545 
-0.1024421499827545 -0.08093699745920985 -0.08093699745920985 -0.08093699745920985 -0.08093699745920985 -0.05913507621526971 -0.05913507621526971 -0.05913507621526971 -0.05913507621526971 
-0.0370930585566135 -0.0370930585566135 -0.0370930585566135 -0.0370930585566135 -0.01486207118968415 -0.01486207118968415 -0.01486207118968415 -0.01486207118968415 0.007507997997335177 
0.007507997997335177 0.007507997997335177 0.007507997997335177 0.029962999483602 0.029962999483602 0.029962999483602 0.029962999483602 0.05243789612382541 0.05243789612382541 
0.05243789612382541 0.05243789612382541 0.07485459545462804 0.07485459545462804 0.07485459545462804 0.07485459545462804 0.09710598367371356 0.09710598367371356 0.09710598367371356 
0.09710598367371356 0.1191158293753497 0.1191158293753497 0.1191158293753497 0.1191158293753497 0.1405738161300585 0.1405738161300585 0.1405738161300585 0.1405738161300585 
0.1621538818189475 0.1621538818189475 0.1621538818189475 0.1621538818189475 0.1800632232318618 0.1800632232318618 0.1800632232318618 0.1800632232318618 0.2107229546535825 
0.2107229546535825 0.2107229546535825 0.2107229546535825 0.25152745127309 0.25152745127309 0.25152745127309 0.25152745127309 0.2630395051322518 0.2630395051322518 
0.2630395051322518 0.2630395051322518 0.2794474373180518 0.2794474373180518 0.2794474373180518 0.2794474373180518 0.2960822393830224 0.2960822393830224 0.2960822393830224 
0.2960822393830224 0.3118034166298642 0.3118034166298642 0.3118034166298642 0.3118034166298642 0.3263260314192822 0.3263260314192822 0.3263260314192822 0.3263260314192822 
0.3395691855116297 0.3395691855116297 0.3395691855116297 0.3395691855116297 0.351495108128376 0.351495108128376 0.351495108128376 0.351495108128376 0.3620698803235179 
0.3620698803235179 0.3620698803235179 0.3620698803235179 0.3712554382608571 0.3712554382608571 0.3712554382608571 0.3712554382608571 0.3790104391106957 0.3790104391106957 
0.3790104391106957 0.3790104391106957 0.3852938065772313 0.3852938065772313 0.3852938065772313 0.3852938065772313 0.3900686004146178 0.3900686004146178 0.3900686004146178 
0.3900686004146178 0.3933050833977019 0.3933050833977019 0.3933050833977019 0.3933050833977019 0.3949827260640864 0.3949827260640864 0.3949827260640864 0.3949827260640864 
0.3950919280930307 0.3950919280930307 0.3950919280930307 0.3950919280930307 0.3936328654802273 0.3936328654802273 0.3936328654802273 0.3936328654802273 0.3906130488229106 
0.3906130488229106 0.3906130488229106 0.3906130488229106 0.3860472352256774 0.3860472352256774 0.3860472352256774 0.3860472352256774 0.3799567108037341 0.3799567108037341 
0.3799567108037341 0.3799567108037341 0.3723678245070663 0.3723678245070663 0.3723678245070663 0.3723678245070663 0.3633116402845551 0.3633116402845551 0.3633116402845551 
0.3633116402845551 0.3528239675457812 0.3528239675457812 0.3528239675457812 0.3528239675457812 0.3409456077237625 0.3409456077237625 0.3409456077237625 0.3409456077237625 
0.327722614592316 0.327722614592316 0.327722614592316 0.327722614592316 0.3132064301091244 0.3132064301091244 0.3132064301091244 0.3132064301091244 0.2974538580388621 
0.2974538580388621 0.2974538580388621 0.2974538580388621 0.2805268753164035 0.2805268753164035 0.2805268753164035 0.2805268753164035 0.2624923282525469 0.2624923282525469 
0.2624923282525469 0.2624923282525469 0.2434215666696445 0.2434215666696445 0.2434215666696445 0.2434215666696445 0.2233900623373558 0.2233900623373558 0.2233900623373558 
0.2233900623373558 0.2024770378558134 0.2024770378558134 0.2024770378558134 0.2024770378558134 0.1807651132756927 0.1807651132756927 0.1807651132756927 0.1807651132756927 
0.1583399676833475 0.1583399676833475 0.1583399676833475 0.1583399676833475 0.1352900123428539 0.1352900123428539 0.1352900123428539 0.1352900123428539 0.1117060747409993 
0.1117060747409993 0.1117060747409993 0.1117060747409993 0.08768109119839215 0.08768109119839215 0.08768109119839215 0.08768109119839215 0.06330979719753119 0.06330979719753119 
0.06330979719753119 0.06330979719753119 0.03868839499474872 0.03868839499474872 0.03868839499474872 0.03868839499474872 0.01391417747618886 0.01391417747618886 0.01391417747618886 
0.01391417747618886 -0.01091489875028072 -0.01091489875028072 -0.01091489875028072 -0.01091489875028072 -0.03570067442841169 -0.03570067442841169 -0.03570067442841169 -0.03570067442841169 
-0.06034524711840811 -0.06034524711840811 -0.06034524711840811 -0.06034524711840811 -0.08475139193751113 -0.08475139193751113 -0.08475139193751113 -0.08475139193751113 -0.1088229255298516 
-0.1088229255298516 -0.1088229255298516 -0.1088229255298516 -0.1324650237523886 -0.1324650237523886 -0.1324650237523886 -0.1324650237523886 -0.1555845243430555 -0.1555845243430555 
-0.1555845243430555 -0.1555845243430555 -0.1780902471441656 -0.1780902471441656 -0.1780902471441656 -0.1780902471441656 -0.1998933475084722 -0.1998933475084722 -0.1998933475084722 
-0.1998933475084722 -0.2209076954673111 -0.2209076954673111 -0.2209076954673111 -0.2209076954673111 -0.2410502580268508 -0.2410502580268508 -0.2410502580268508 -0.2410502580268508 
-0.2602414613082035 -0.2602414613082035 -0.2602414613082035 -0.2602414613082035 -0.2784055199033517 -0.2784055199033517 -0.2784055199033517 -0.2784055199033517 -0.2954707338302126 
-0.2954707338302126 -0.2954707338302126 -0.2954707338302126 -0.3113697610464308 -0.3113697610464308 -0.3113697610464308 -0.3113697610464308 -0.3260398729757473 -0.3260398729757473 
-0.3260398729757473 -0.3260398729757473 -0.3394231958916867 -0.3394231958916867 -0.3394231958916867 -0.3394231958916867 -0.3514669351966369 -0.3514669351966369 -0.3514669351966369 
-0.3514669351966369 -0.362123580883765 -0.362123580883765 -0.362123580883765 -0.362123580883765 -0.371351097799124 -0.371351097799124 -0.371351097799124 -0.371351097799124 
-0.379113097693127 -0.379113097693127 -0.379113097693127 -0.379113097693127 -0.385379005832335 -0.385379005832335 -0.385379005832335 -0.385379005832335 -0.3901241212883116 
-0.3901241212883116 -0.3901241212883116 -0.3901241212883116 -0.3933295357249466 -0.3933295357249466 -0.3933295357249466 -0.3933295357249466 -0.3949822191063829 -0.3949822191063829 
-0.3949822191063829 -0.3949822191063829 -0.395076125275774 -0.395076125275774 -0.395076125275774 -0.395076125275774 -0.393611487775408 -0.393611487775408 -0.393611487775408 
-0.393611487775408 -0.390593545923 -0.390593545923 -0.390593545923 -0.390593545923 -0.3860337928293736 -0.3860337928293736 -0.3860337928293736 -0.3860337928293736 
-0.3799503725698555 -0.3799503725698555 -0.3799503725698555 -0.3799503725698555 -0.3723673297733048 -0.3723673297733048 -0.3723673297733048 -0.3723673297733048 -0.3633145121262985 
-0.3633145121262985 -0.3633145121262985 -0.3633145121262985 -0.3528274903320183 -0.3528274903320183 -0.3528274903320183 -0.3528274903320183 -0.340947529366547 -0.340947529366547 
-0.340947529366547 -0.340947529366547 -0.3277216114499275 -0.3277216114499275 -0.3277216114499275 -0.3277216114499275 -0.3132025275155115 -0.3132025275155115 -0.3132025275155115 
-0.3132025275155115 -0.2974490660745802 -0.2974490660745802 -0.2974490660745802 -0.2974490660745802 -0.2805262647484346 -0.2805262647484346 -0.2805262647484346 -0.2805262647484346 
-0.2625056397293943 -0.2625056397293943 -0.2625056397293943 -0.2625056397293943 -0.2434652384488259 -0.2434652384488259 -0.2434652384488259 -0.2434652384488259 -0.2234893145167702 
-0.2234893145167702 -0.2234893145167702 -0.2234893145167702 -0.2026674159239861 -0.2026674159239861 -0.2026674159239861 -0.2026674159239861 -0.1810927342741339 -0.1810927342741339 
-0.1810927342741339 -0.1810927342741339 -0.1588596969701039 -0.1588596969701039 -0.1588596969701039 -0.1588596969701039 -0.1360609849897898 -0.1360609849897898 -0.1360609849897898 
-0.1360609849897898 -0.1127843927489604 -0.1127843927489604 -0.1127843927489604 -0.1127843927489604 -0.08911015184914994 -0.08911015184914994 -0.08911015184914994 -0.08911015184914994 
-0.06510943763774098 -0.06510943763774098 -0.06510943763774098 -0.06510943763774098 -0.04084471018616656 -0.04084471018616656 -0.04084471018616656 -0.04084471018616656 -0.01637225783038954 
-0.01637225783038954 -0.01637225783038954 -0.01637225783038954 0.008253075102022949 0.008253075102022949 0.008253075102022949 0.008253075102022949 0.0329718449912027 0.0329718449912027 
0.0329718449912027 0.0329718449912027 0.05771259872307394 0.05771259872307394 0.05771259872307394 0.05771259872307394 0.08238985372103923 0.08238985372103923 0.08238985372103923 
0.08238985372103923 0.1068846760778889 0.1068846760778889 0.1068846760778889 0.1068846760778889 0.1311184914346953 0.1311184914346953 0.1311184914346953 0.1311184914346953 
0.1547270148081907 0.1547270148081907 0.1547270148081907 0.1547270148081907 0.1785464975404339 0.1785464975404339 0.1785464975404339 0.1785464975404339 0.1980447326493046 
0.1980447326493046 0.1980447326493046 0.1980447326493046 0.2322112615091883 0.2322112615091883 0.2322112615091883 0.2322112615091883 0.2847370169035332 0.2847370169035332 
0.2847370169035332 0.2847370169035332 0.2978172309506469 0.2978172309506469 0.2978172309506469 0.2978172309506469 0.3163081822266357 0.3163081822266357 0.3163081822266357 
0.3163081822266357 0.3350884681002644 0.3350884681002644 0.3350884681002644 0.3350884681002644 0.3528734946520423 0.3528734946520423 0.3528734946520423 0.3528734946520423 
0.3693230750844827 0.3693230750844827 0.3693230750844827 0.3693230750844827 0.3843303224276678 0.3843303224276678 0.3843303224276678 0.3843303224276678 0.3978442951028627 
0.3978442951028627 0.3978442951028627 0.3978442951028627 0.4098238907625392 0.4098238907625392 0.4098238907625392 0.4098238907625392 0.4202263420128801 0.4202263420128801 
0.4202263420128801 0.4202263420128801 0.4290063220121577 0.4290063220121577 0.4290063220121577 0.4290063220121577 0.4361188437346393 0.4361188437346393 0.4361188437346393 
0.4361188437346393 0.4415231750833142 0.4415231750833142 0.4415231750833142 0.4415231750833142 0.4451863311728124 0.4451863311728124 0.4451863311728124 0.4451863311728124 
0.4470855666397203 0.4470855666397203 0.4470855666397203 0.4470855666397203 0.4472098195805878 0.4472098195805878 0.4472098195805878 0.4472098195805878 0.4455588419533212 
0.4455588419533212 0.4455588419533212 0.4455588419533212 0.4421413887994927 0.4421413887994927 0.4421413887994927 0.4421413887994927 0.436974312091601 0.436974312091601 
0.436974312091601 0.436974312091601 0.4300814405575182 0.4300814405575182 0.4300814405575182 0.4300814405575182 0.4214925419015394 0.4214925419015394 0.4214925419015394 
0.4214925419015394 0.4112427842400294 0.4112427842400294 0.4112427842400294 0.4112427842400294 0.3993727026362136 0.3993727026362136 0.3993727026362136 0.3993727026362136 
0.3859284751596955 0.3859284751596955 0.3859284751596955 0.3859284751596955 0.3709622127230173 0.3709622127230173 0.3709622127230173 0.3709622127230173 0.3545321263727559 
0.3545321263727559 0.3545321263727559 0.3545321263727559 0.3367025003084388 0.3367025003084388 0.3367025003084388 0.3367025003084388 0.3175434795744134 0.3175434795744134 
0.3175434795744134 0.3175434795744134 0.2971307242186361 0.2971307242186361 0.2971307242186361 0.2971307242186361 0.2755449932327432 0.2755449932327432 0.2755449932327432 
0.2755449932327432 0.2528717127892751 0.2528717127892751 0.2528717127892751 0.2528717127892751 0.2292005589707399 0.2292005589707399 0.2292005589707399 0.2292005589707399 
0.2046250618253592 0.2046250618253592 0.2046250618253592 0.2046250618253592 0.1792422238516247 0.1792422238516247 0.1792422238516247 0.1792422238516247 0.1531521451949386 
0.1531521451949386 0.1531521451949386 0.1531521451949386 0.1264576539374084 0.1264576539374084 0.1264576539374084 0.1264576539374084 0.09926394321412432 0.09926394321412432 
0.09926394321412432 0.09926394321412432 0.07167821141784139 0.07167821141784139 0.07167821141784139 0.07167821141784139 0.04380929037886147 0.04380929037886147 0.04380929037886147 
0.04380929037886147 0.01576723941698456 0.01576723941698456 0.01576723941698456 0.01576723941698456 -0.0123371099934053 -0.0123371099934053 -0.0123371099934053 -0.0123371099934053 
-0.04039265357281296 -0.04039265357281296 -0.04039265357281296 -0.04039265357281296 -0.06828852917354791 -0.06828852917354791 -0.06828852917354791 -0.06828852917354791 -0.09591460871062191 
-0.09591460871062191 -0.09591460871062191 -0.09591460871062191 -0.1231619391769121 -0.1231619391769121 -0.1231619391769121 -0.1231619391769121 -0.149923130593295 -0.149923130593295 
-0.149923130593295 -0.149923130593295 -0.1760927137899109 -0.1760927137899109 -0.1760927137899109 -0.1760927137899109 -0.2015675004294563 -0.2015675004294563 -0.2015675004294563 
-0.2015675004294563 -0.2262469676728791 -0.2262469676728791 -0.2262469676728791 -0.2262469676728791 -0.2500336687795292 -0.2500336687795292 -0.2500336687795292 -0.2500336687795292 
-0.2728336525751969 -0.2728336525751969 -0.2728336525751969 -0.2728336525751969 -0.2945568687930445 -0.2945568687930445 -0.2945568687930445 -0.2945568687930445 -0.3151175430544592 
-0.3151175430544592 -0.3151175430544592 -0.3151175430544592 -0.3344345175368013 -0.3344345175368013 -0.3344345175368013 -0.3344345175368013 -0.3524315627446233 -0.3524315627446233 
-0.3524315627446233 -0.3524315627446233 -0.3690376676933916 -0.3690376676933916 -0.3690376676933916 -0.3690376676933916 -0.3841873127896125 -0.3841873127896125 -0.3841873127896125 
-0.3841873127896125 -0.3978207243751922 -0.3978207243751922 -0.3978207243751922 -0.3978207243751922 -0.4098841107959391 -0.4098841107959391 -0.4098841107959391 -0.4098841107959391 
-0.4203298820606912 -0.4203298820606912 -0.4203298820606912 -0.4203298820606912 -0.4291168437322574 -0.4291168437322574 -0.4291168437322574 -0.4291168437322574 -0.4362103605026585 
-0.4362103605026585 -0.4362103605026585 -0.4362103605026585 -0.4415824256619492 -0.4415824256619492 -0.4415824256619492 -0.4415824256619492 -0.4452116786335502 -0.4452116786335502 
-0.4452116786335502 -0.4452116786335502 -0.4470836132115823 -0.4470836132115823 -0.4470836132115823 -0.4470836132115823 -0.4471911663094418 -0.4471911663094418 -0.4471911663094418 
-0.4471911663094418 -0.4455342450616931 -0.4455342450616931 -0.4455342450616931 -0.4455342450616931 -0.4421191320074134 -0.4421191320074134 -0.4421191320074134 -0.4421191320074134 
-0.4369590487976883 -0.4369590487976883 -0.4369590487976883 -0.4369590487976883 -0.4300743073783158 -0.4300743073783158 -0.4300743073783158 -0.4300743073783158 -0.4214920882721842 
-0.4214920882721842 -0.4214920882721842 -0.4214920882721842 -0.4112461956204164 -0.4112461956204164 -0.4112461956204164 -0.4112461956204164 -0.3993769083017116 -0.3993769083017116 
-0.3993769083017116 -0.3993769083017116 -0.3859309462456415 -0.3859309462456415 -0.3859309462456415 -0.3859309462456415 -0.3709614889961857 -0.3709614889961857 -0.3709614889961857 
-0.3709614889961857 -0.3545282871259631 -0.3545282871259631 -0.3545282871259631 -0.3545282871259631 -0.3366978727585011 -0.3366978727585011 -0.3366978727585011 -0.3366978727585011 
-0.3175438408778654 -0.3175438408778654 -0.3175438408778654 -0.3175438408778654 -0.2971471053563715 -0.2971471053563715 -0.2971471053563715 -0.2971471053563715 -0.2755959583296115 
-0.2755959583296115 -0.2755959583296115 -0.2755959583296115 -0.2529857072911451 -0.2529857072911451 -0.2529857072911451 -0.2529857072911451 -0.2294176536151125 -0.2294176536151125 
-0.2294176536151125 -0.2294176536151125 -0.2049972390804275 -0.2049972390804275 -0.2049972390804275 -0.2049972390804275 -0.1798313364858696 -0.1798313364858696 -0.1798313364858696 
-0.1798313364858696 -0.1540248870165963 -0.1540248870165963 -0.1540248870165963 -0.1540248870165963 -0.1276773507503386 -0.1276773507503386 -0.1276773507503386 -0.1276773507503386 
-0.100879669205071 -0.100879669205071 -0.100879669205071 -0.100879669205071 -0.07371255346859745 -0.07371255346859745 -0.07371255346859745 -0.07371255346859745 -0.04624683905197167 
-0.04624683905197167 -0.04624683905197167 -0.04624683905197167 -0.01854632953349823 -0.01854632953349823 -0.01854632953349823 -0.01854632953349823 0.009326881171127914 0.009326881171127914 
0.009326881171127914 0.009326881171127914 0.03730558105375154 0.03730558105375154 0.03730558105375154 0.03730558105375154 0.06530904605655785 0.06530904605655785 0.06530904605655785 
0.06530904605655785 0.09324072148937249 0.09324072148937249 0.09324072148937249 0.09324072148937249 0.1209662383764815 0.1209662383764815 0.1209662383764815 0.1209662383764815 
0.1483965696655637 0.1483965696655637 0.1483965696655637 0.1483965696655637 0.17512128251788 0.17512128251788 0.17512128251788 0.17512128251788 0.2020753090185065 
0.2020753090185065 0.2020753090185065 0.2020753090185065 0.2241931256019249 0.2241931256019249 0.2241931256019249 0.2241931256019249 0.2627819323165753 0.2627819323165753 
0.2627819323165753 0.2627819323165753 0.3191424379930877 0.3191424379930877 0.3191424379930877 0.3191424379930877 0.333866458157912 0.333866458157912 0.333866458157912 
0.333866458157912 0.3546119918442753 0.3546119918442753 0.3546119918442753 0.3546119918442753 0.3756385735649718 0.3756385735649718 0.3756385735649718 0.3756385735649718 
0.3955457921128818 0.3955457921128818 0.3955457921128818 0.3955457921128818 0.4139677079585456 0.4139677079585456 0.4139677079585456 0.4139677079585456 0.4307858513421086 
0.4307858513421086 0.4307858513421086 0.4307858513421086 0.4459388449587637 0.4459388449587637 0.4459388449587637 0.4459388449587637 0.4593756437993898 0.4593756437993898 
0.4593756437993898 0.4593756437993898 0.4710446966894746 0.4710446966894746 0.4710446966894746 0.4710446966894746 0.4808933256158006 0.4808933256158006 0.4808933256158006 
0.4808933256158006 0.4888705817588484 0.4888705817588484 0.4888705817588484 0.4888705817588484 0.4949310820687794 0.4949310820687794 0.4949310820687794 0.4949310820687794 
0.4990385028647165 0.4990385028647165 0.4990385028647165 0.4990385028647165 0.50116807941857 0.50116807941857 0.50116807941857 0.50116807941857 0.5013077101318633 
0.5013077101318633 0.5013077101318633 0.5013077101318633 0.4994572029192744 0.4994572029192744 0.4994572029192744 0.4994572029192744 0.4956266970504736 0.4956266970504736 
0.4956266970504736 0.4956266970504736 0.4898352043263375 0.4898352043263375 0.4898352043263375 0.4898352043263375 0.4821093623464084 0.4821093623464084 0.4821093623464084 
0.4821093623464084 0.4724824494457934 0.4724824494457934 0.4724824494457934 0.4724824494457934 0.4609938236893886 0.4609938236893886 0.4609938236893886 0.4609938236893886 
0.4476888959073207 0.4476888959073207 0.4476888959073207 0.4476888959073207 0.4326194050738261 0.4326194050738261 0.4326194050738261 0.4326194050738261 0.4158437421656653 
0.4158437421656653 0.4158437421656653 0.4158437421656653 0.3974271409106503 0.3974271409106503 0.3974271409106503 0.3974271409106503 0.377441649160252 0.377441649160252 
0.377441649160252 0.377441649160252 0.355965890944765 0.355965890944765 0.355965890944765 0.355965890944765 0.3330846755454663 0.3330846755454663 0.3330846755454663 
0.3330846755454663 0.3088885281614474 0.3088885281614474 0.3088885281614474 0.3088885281614474 0.2834732047191817 0.2834732047191817 0.2834732047191817 0.2834732047191817 
0.2569392260691826 0.2569392260691826 0.2569392260691826 0.2569392260691826 0.2293914384888618 0.2293914384888618 0.2293914384888618 0.2293914384888618 0.200938589899095 
0.200938589899095 0.200938589899095 0.200938589899095 0.1716929092950396 0.1716929092950396 0.1716929092950396 0.1716929092950396 0.1417696853271343 0.1417696853271343 
0.1417696853271343 0.1417696853271343 0.1112868477606203 0.1112868477606203 0.1112868477606203 0.1112868477606203 0.08036455360463383 0.08036455360463383 0.08036455360463383 
0.08036455360463383 0.04912476816465376 0.04912476816465376 0.04912476816465376 0.04912476816465376 0.01769081990849611 0.01769081990849611 0.01769081990849611 0.01769081990849611 
-0.01381309111558983 -0.01381309111558983 -0.01381309111558983 -0.01381309111558983 -0.0452624343984994 -0.0452624343984994 -0.0452624343984994 -0.0452624343984994 -0.07653291780220242 
-0.07653291780220242 -0.07653291780220242 -0.07653291780220242 -0.1075010457243415 -0.1075010457243415 -0.1075010457243415 -0.1075010457243415 -0.1380446319782296 -0.1380446319782296 
-0.1380446319782296 -0.1380446319782296 -0.1680432554941052 -0.1680432554941052 -0.1680432554941052 -0.1680432554941052 -0.1973786745850432 -0.1973786745850432 -0.1973786745850432 
-0.1973786745850432 -0.2259352312550658 -0.2259352312550658 -0.2259352312550658 -0.2259352312550658 -0.2536002727536039 -0.2536002727536039 -0.2536002727536039 -0.2536002727536039 
-0.2802645984570162 -0.2802645984570162 -0.2802645984570162 -0.2802645984570162 -0.3058229196071972 -0.3058229196071972 -0.3058229196071972 -0.3058229196071972 -0.3301743093418864 
-0.3301743093418864 -0.3301743093418864 -0.3301743093418864 -0.3532226239634418 -0.3532226239634418 -0.3532226239634418 -0.3532226239634418 -0.3748768879341099 -0.3748768879341099 
-0.3748768879341099 -0.3748768879341099 -0.3950516458547687 -0.3950516458547687 -0.3950516458547687 -0.3950516458547687 -0.4136672886599059 -0.4136672886599059 -0.4136672886599059 
-0.4136672886599059 -0.4306503596703616 -0.4306503596703616 -0.4306503596703616 -0.4306503596703616 -0.4459338413781454 -0.4459338413781454 -0.4459338413781454 -0.4459338413781454 
-0.4594574231005802 -0.4594574231005802 -0.4594574231005802 -0.4594574231005802 -0.471167748350284 -0.471167748350284 -0.471167748350284 -0.471167748350284 -0.4810186282863631 
-0.4810186282863631 -0.4810186282863631 -0.4810186282863631 -0.4889712098417827 -0.4889712098417827 -0.4889712098417827 -0.4889712098417827 -0.4949940749372235 -0.4949940749372235 
-0.4949940749372235 -0.4949940749372235 -0.4990633290302631 -0.4990633290302631 -0.4990633290302631 -0.4990633290302631 -0.5011628447466612 -0.5011628447466612 -0.5011628447466612 
-0.5011628447466612 -0.5012845512386777 -0.5012845512386777 -0.5012845512386777 -0.5012845512386777 -0.4994281586307676 -0.4994281586307676 -0.4994281586307676 -0.4994281586307676 
-0.4956009036417946 -0.4956009036417946 -0.4956009036417946 -0.4956009036417946 -0.4898176904720638 -0.4898176904720638 -0.4898176904720638 -0.4898176904720638 -0.4821012327232863 
-0.4821012327232863 -0.4821012327232863 -0.4821012327232863 -0.4724819516740321 -0.4724819516740321 -0.4724819516740321 -0.4724819516740321 -0.4609977257564659 -0.4609977257564659 
-0.4609977257564659 -0.4609977257564659 -0.447693724258214 -0.447693724258214 -0.447693724258214 -0.447693724258214 -0.4326223315097649 -0.4326223315097649 -0.4326223315097649 
-0.4326223315097649 -0.4158431649533987 -0.4158431649533987 -0.4158431649533987 -0.4158431649533987 -0.3974232013909594 -0.3974232013909594 -0.3974232013909594 -0.3974232013909594 