Title = Result/Post/Linear_Advection_2D/FVM/MLP_u1_Least_Square/Sine_Wave_2D/Quad100/
FileType = Solution
Variables = q
Zone T = Result/Post/Linear_Advection_2D/FVM/MLP_u1_Least_Square/Sine_Wave_2D/Quad100/
ZoneType = FETriangle
Nodes = 40000
Elements = 20000
DataPacking = Block
StrandID = 5
SolutionTime = 0.4
0.5884991830609917 0.5884991830609917 0.5884991830609917 0.5884991830609917 0.6152438200110156 0.6152438200110156 0.6152438200110156 0.6152438200110156 0.6532624951985126 0.6532624951985126 
0.6532624951985126 0.6532624951985126 0.6919769912354617 0.6919769912354617 0.6919769912354617 0.6919769912354617 0.7287417166513294 0.7287417166513294 0.7287417166513294 
0.7287417166513294 0.762814247183727 0.762814247183727 0.762814247183727 0.762814247183727 0.7939172691109065 0.7939172691109065 0.7939172691109065 0.7939172691109065 
0.8218942957913082 0.8218942957913082 0.8218942957913082 0.8218942957913082 0.846627457881605 0.846627457881605 0.846627457881605 0.846627457881605 0.8680179803748405 
0.8680179803748405 0.8680179803748405 0.8680179803748405 0.8859817058235776 0.8859817058235776 0.8859817058235776 0.8859817058235776 0.9004482070398768 0.9004482070398768 
0.9004482070398768 0.9004482070398768 0.9113608813108451 0.9113608813108451 0.9113608813108451 0.9113608813108451 0.9186775411599044 0.9186775411599044 0.9186775411599044 
0.9186775411599044 0.9223678112398441 0.9223678112398441 0.9223678112398441 0.9223678112398441 0.9224168445343395 0.9224168445343395 0.9224168445343395 0.9224168445343395 
0.9188266533916877 0.9188266533916877 0.9188266533916877 0.9188266533916877 0.9116097830980805 0.9116097830980805 0.9116097830980805 0.9116097830980805 0.9007954407034786 
0.9007954407034786 0.9007954407034786 0.9007954407034786 0.886426164935773 0.886426164935773 0.886426164935773 0.886426164935773 0.8685586531351738 0.8685586531351738 
0.8685586531351738 0.8685586531351738 0.8472633671010269 0.8472633671010269 0.8472633671010269 0.8472633671010269 0.8226242845558582 0.8226242845558582 0.8226242845558582 
0.8226242845558582 0.7947385666567799 0.7947385666567799 0.7947385666567799 0.7947385666567799 0.7637163435615908 0.7637163435615908 0.7637163435615908 0.7637163435615908 
0.7296805348687632 0.7296805348687632 0.7296805348687632 0.7296805348687632 0.6927662659136629 0.6927662659136629 0.6927662659136629 0.6927662659136629 0.653119157395523 
0.653119157395523 0.653119157395523 0.653119157395523 0.6108924550854611 0.6108924550854611 0.6108924550854611 0.6108924550854611 0.5662451154466845 0.5662451154466845 
0.5662451154466845 0.5662451154466845 0.519345613487133 0.519345613487133 0.519345613487133 0.519345613487133 0.4703863523720842 0.4703863523720842 0.4703863523720842 
0.4703863523720842 0.4196078181041947 0.4196078181041947 0.4196078181041947 0.4196078181041947 0.3673202644159897 0.3673202644159897 0.3673202644159897 0.3673202644159897 
0.3139004137332633 0.3139004137332633 0.3139004137332633 0.3139004137332633 0.2597423997653191 0.2597423997653191 0.2597423997653191 0.2597423997653191 0.2051629989307036 
0.2051629989307036 0.2051629989307036 0.2051629989307036 0.1502950052017118 0.1502950052017118 0.1502950052017118 0.1502950052017118 0.0950288123624803 0.0950288123624803 
0.0950288123624803 0.0950288123624803 0.03905722797904899 0.03905722797904899 0.03905722797904899 0.03905722797904899 -0.01796583953292043 -0.01796583953292043 -0.01796583953292043 
-0.01796583953292043 -0.076206845791098 -0.076206845791098 -0.076206845791098 -0.076206845791098 -0.1354744326219134 -0.1354744326219134 -0.1354744326219134 -0.1354744326219134 
-0.1951757589532115 -0.1951757589532115 -0.1951757589532115 -0.1951757589532115 -0.2544397355881375 -0.2544397355881375 -0.2544397355881375 -0.2544397355881375 -0.312354958907184 
-0.312354958907184 -0.312354958907184 -0.312354958907184 -0.3682121813984583 -0.3682121813984583 -0.3682121813984583 -0.3682121813984583 -0.4216436004440956 -0.4216436004440956 
-0.4216436004440956 -0.4216436004440956 -0.4726102776591179 -0.4726102776591179 -0.4726102776591179 -0.4726102776591179 -0.5212672482528108 -0.5212672482528108 -0.5212672482528108 
-0.5212672482528108 -0.5677882811693457 -0.5677882811693457 -0.5677882811693457 -0.5677882811693457 -0.6122344457993396 -0.6122344457993396 -0.6122344457993396 -0.6122344457993396 
-0.6545106555650645 -0.6545106555650645 -0.6545106555650645 -0.6545106555650645 -0.6944022462234686 -0.6944022462234686 -0.6944022462234686 -0.6944022462234686 -0.7316494837415469 
-0.7316494837415469 -0.7316494837415469 -0.7316494837415469 -0.76601441937641 -0.76601441937641 -0.76601441937641 -0.76601441937641 -0.7973142852789357 -0.7973142852789357 
-0.7973142852789357 -0.7973142852789357 -0.8254209451699001 -0.8254209451699001 -0.8254209451699001 -0.8254209451699001 -0.8502418991858667 -0.8502418991858667 -0.8502418991858667 
-0.8502418991858667 -0.871700323971516 -0.871700323971516 -0.871700323971516 -0.871700323971516 -0.8897241622377852 -0.8897241622377852 -0.8897241622377852 -0.8897241622377852 
-0.9042450840738536 -0.9042450840738536 -0.9042450840738536 -0.9042450840738536 -0.9152030088782985 -0.9152030088782985 -0.9152030088782985 -0.9152030088782985 -0.9225514274798626 
-0.9225514274798626 -0.9225514274798626 -0.9225514274798626 -0.9262573384320267 -0.9262573384320267 -0.9262573384320267 -0.9262573384320267 -0.9263052668965277 -0.9263052668965277 
-0.9263052668965277 -0.9263052668965277 -0.9226977290981948 -0.9226977290981948 -0.9226977290981948 -0.9226977290981948 -0.9154479762082636 -0.9154479762082636 -0.9154479762082636 
-0.9154479762082636 -0.9045857083787473 -0.9045857083787473 -0.9045857083787473 -0.9045857083787473 -0.8901537128802199 -0.8901537128802199 -0.8901537128802199 -0.8901537128802199 
-0.872208852123221 -0.872208852123221 -0.872208852123221 -0.872208852123221 -0.8508218215276796 -0.8508218215276796 -0.8508218215276796 -0.8508218215276796 -0.8260769788966759 
-0.8260769788966759 -0.8260769788966759 -0.8260769788966759 -0.7980719769779849 -0.7980719769779849 -0.7980719769779849 -0.7980719769779849 -0.766917350483388 -0.766917350483388 
-0.766917350483388 -0.766917350483388 -0.7327360585340286 -0.7327360585340286 -0.7327360585340286 -0.7327360585340286 -0.6956629981131233 -0.6956629981131233 -0.6956629981131233 
-0.6956629981131233 -0.6558444747633548 -0.6558444747633548 -0.6558444747633548 -0.6558444747633548 -0.613437630236926 -0.613437630236926 -0.613437630236926 -0.613437630236926 
-0.5686098240419318 -0.5686098240419318 -0.5686098240419318 -0.5686098240419318 -0.5215379722067365 -0.5215379722067365 -0.5215379722067365 -0.5215379722067365 -0.4724078475228426 
-0.4724078475228426 -0.4724078475228426 -0.4724078475228426 -0.4214133452954419 -0.4214133452954419 -0.4214133452954419 -0.4214133452954419 -0.3687557178708592 -0.3687557178708592 
-0.3687557178708592 -0.3687557178708592 -0.3146427806571952 -0.3146427806571952 -0.3146427806571952 -0.3146427806571952 -0.2592880923273535 -0.2592880923273535 -0.2592880923273535 
-0.2592880923273535 -0.2029101124154012 -0.2029101124154012 -0.2029101124154012 -0.2029101124154012 -0.1457313384066483 -0.1457313384066483 -0.1457313384066483 -0.1457313384066483 
-0.08797743149672894 -0.08797743149672894 -0.08797743149672894 -0.08797743149672894 -0.02987630745631305 -0.02987630745631305 -0.02987630745631305 -0.02987630745631305 0.028342676586239 
0.028342676586239 0.028342676586239 0.028342676586239 0.08645002643499368 0.08645002643499368 0.08645002643499368 0.08645002643499368 0.1442151868365263 0.1442151868365263 
0.1442151868365263 0.1442151868365263 0.2014157775603853 0.2014157775603853 0.2014157775603853 0.2014157775603853 0.2578008261368686 0.2578008261368686 0.2578008261368686 
0.2578008261368686 0.3132609855300413 0.3132609855300413 0.3132609855300413 0.3132609855300413 0.3670721629237141 0.3670721629237141 0.3670721629237141 0.3670721629237141 
0.4212667543358285 0.4212667543358285 0.4212667543358285 0.4212667543358285 0.4657030188291335 0.4657030188291335 0.4657030188291335 0.4657030188291335 0.5438314815409167 
0.5438314815409167 0.5438314815409167 0.5438314815409167 0.5788128325271864 0.5788128325271864 0.5788128325271864 0.5788128325271864 0.6052623331490723 0.6052623331490723 
0.6052623331490723 0.6052623331490723 0.6426447941230538 0.6426447941230538 0.6426447941230538 0.6426447941230538 0.6806907790512292 0.6806907790512292 0.6806907790512292 
0.6806907790512292 0.7168261637014528 0.7168261637014528 0.7168261637014528 0.7168261637014528 0.7503251516967234 0.7503251516967234 0.7503251516967234 0.7503251516967234 
0.780912407374607 0.780912407374607 0.780912407374607 0.780912407374607 0.8084304562231811 0.8084304562231811 0.8084304562231811 0.8084304562231811 0.8327604795248915 
0.8327604795248915 0.8327604795248915 0.8327604795248915 0.853803427780132 0.853803427780132 0.853803427780132 0.853803427780132 0.8714754971833212 0.8714754971833212 
0.8714754971833212 0.8714754971833212 0.8857070061381106 0.8857070061381106 0.8857070061381106 0.8857070061381106 0.8964421673746414 0.8964421673746414 0.8964421673746414 
0.8964421673746414 0.9036389941348779 0.9036389941348779 0.9036389941348779 0.9036389941348779 0.9072687612185019 0.9072687612185019 0.9072687612185019 0.9072687612185019 
0.9073175253882068 0.9073175253882068 0.9073175253882068 0.9073175253882068 0.9037858346810058 0.9037858346810058 0.9037858346810058 0.9037858346810058 0.8966874472934705 
0.8966874472934705 0.8966874472934705 0.8966874472934705 0.8860501731103676 0.8860501731103676 0.8860501731103676 0.8860501731103676 0.8719161062246124 0.8719161062246124 
0.8719161062246124 0.8719161062246124 0.8543410559895899 0.8543410559895899 0.8543410559895899 0.8543410559895899 0.8333943715891887 0.8333943715891887 0.8333943715891887 
0.8333943715891887 0.8091586527319201 0.8091586527319201 0.8091586527319201 0.8091586527319201 0.7817294525929022 0.7817294525929022 0.7817294525929022 0.7817294525929022 
0.751215084138922 0.751215084138922 0.751215084138922 0.751215084138922 0.7177364478030057 0.7177364478030057 0.7177364478030057 0.7177364478030057 0.68142645075535 
0.68142645075535 0.68142645075535 0.68142645075535 0.64242832394356 0.64242832394356 0.64242832394356 0.64242832394356 0.6008928109663895 0.6008928109663895 
0.6008928109663895 0.6008928109663895 0.556976308585748 0.556976308585748 0.556976308585748 0.556976308585748 0.5108446268783968 0.5108446268783968 0.5108446268783968 
0.5108446268783968 0.4626871376572095 0.4626871376572095 0.4626871376572095 0.4626871376572095 0.4127404531561734 0.4127404531561734 0.4127404531561734 0.4127404531561734 
0.36130964900674 0.36130964900674 0.36130964900674 0.36130964900674 0.3087649617985177 0.3087649617985177 0.3087649617985177 0.3087649617985177 0.2554936072478858 
0.2554936072478858 0.2554936072478858 0.2554936072478858 0.2018067812266379 0.2018067812266379 0.2018067812266379 0.2018067812266379 0.1478350519286994 0.1478350519286994 
0.1478350519286994 0.1478350519286994 0.09347105559425196 0.09347105559425196 0.09347105559425196 0.09347105559425196 0.03841347932852027 0.03841347932852027 0.03841347932852027 
0.03841347932852027 -0.01767720267149997 -0.01767720267149997 -0.01767720267149997 -0.01767720267149997 -0.07496421220375801 -0.07496421220375801 -0.07496421220375801 -0.07496421220375801 
-0.1332594865163788 -0.1332594865163788 -0.1332594865163788 -0.1332594865163788 -0.1919806723934249 -0.1919806723934249 -0.1919806723934249 -0.1919806723934249 -0.2502719791130679 
-0.2502719791130679 -0.2502719791130679 -0.2502719791130679 -0.3072377416379951 -0.3072377416379951 -0.3072377416379951 -0.3072377416379951 -0.3621805917470298 -0.3621805917470298 
-0.3621805917470298 -0.3621805917470298 -0.4147384366985245 -0.4147384366985245 -0.4147384366985245 -0.4147384366985245 -0.4648723277155075 -0.4648723277155075 -0.4648723277155075 
-0.4648723277155075 -0.5127341250105841 -0.5127341250105841 -0.5127341250105841 -0.5127341250105841 -0.5584943865055435 -0.5584943865055435 -0.5584943865055435 -0.5584943865055435 
-0.6022131542799538 -0.6022131542799538 -0.6022131542799538 -0.6022131542799538 -0.6437971062743005 -0.6437971062743005 -0.6437971062743005 -0.6437971062743005 -0.6830353626677935 
-0.6830353626677935 -0.6830353626677935 -0.6830353626677935 -0.7196726363519758 -0.7196726363519758 -0.7196726363519758 -0.7196726363519758 -0.7534749433722473 -0.7534749433722473 
-0.7534749433722473 -0.7534749433722473 -0.7842624784470429 -0.7842624784470429 -0.7842624784470429 -0.7842624784470429 -0.8119091333252625 -0.8119091333252625 -0.8119091333252625 
-0.8119091333252625 -0.8363238625004878 -0.8363238625004878 -0.8363238625004878 -0.8363238625004878 -0.85743107536564 -0.85743107536564 -0.85743107536564 -0.85743107536564 
-0.8751599060086379 -0.8751599060086379 -0.8751599060086379 -0.8751599060086379 -0.8894431732488108 -0.8894431732488108 -0.8894431732488108 -0.8894431732488108 -0.9002217370770357 
-0.9002217370770357 -0.9002217370770357 -0.9002217370770357 -0.9074492398623032 -0.9074492398623032 -0.9074492398623032 -0.9074492398623032 -0.9110942029816387 -0.9110942029816387 
-0.9110942029816387 -0.9110942029816387 -0.9111419028030754 -0.9111419028030754 -0.9111419028030754 -0.9111419028030754 -0.9075932567515168 -0.9075932567515168 -0.9075932567515168 
-0.9075932567515168 -0.9004626496219542 -0.9004626496219542 -0.9004626496219542 -0.9004626496219542 -0.8897783361166594 -0.8897783361166594 -0.8897783361166594 -0.8897783361166594 
-0.8755826423167958 -0.8755826423167958 -0.8755826423167958 -0.8755826423167958 -0.8579315404161455 -0.8579315404161455 -0.8579315404161455 -0.8579315404161455 -0.8368946172956648 
-0.8368946172956648 -0.8368946172956648 -0.8368946172956648 -0.8125548575887274 -0.8125548575887274 -0.8125548575887274 -0.8125548575887274 -0.7850083084432039 -0.7850083084432039 
-0.7850083084432039 -0.7850083084432039 -0.7543636882254293 -0.7543636882254293 -0.7543636882254293 -0.7543636882254293 -0.720741941960098 -0.720741941960098 -0.720741941960098 
-0.720741941960098 -0.6842757595950364 -0.6842757595950364 -0.6842757595950364 -0.6842757595950364 -0.6451090536288338 -0.6451090536288338 -0.6451090536288338 -0.6451090536288338 
-0.6033963947855333 -0.6033963947855333 -0.6033963947855333 -0.6033963947855333 -0.5593024033842278 -0.5593024033842278 -0.5593024033842278 -0.5593024033842278 -0.5130010992366001 
-0.5130010992366001 -0.5130010992366001 -0.5130010992366001 -0.4646752137246777 -0.4646752137246777 -0.4646752137246777 -0.4646752137246777 -0.4145154678634384 -0.4145154678634384 
-0.4145154678634384 -0.4145154678634384 -0.3627198194497843 -0.3627198194497843 -0.3627198194497843 -0.3627198194497843 -0.3094926820505529 -0.3094926820505529 -0.3094926820505529 
-0.3094926820505529 -0.2550441185501051 -0.2550441185501051 -0.2550441185501051 -0.2550441185501051 -0.1995890124729246 -0.1995890124729246 -0.1995890124729246 -0.1995890124729246 
-0.1433462191953713 -0.1433462191953713 -0.1433462191953713 -0.1433462191953713 -0.08653770591856447 -0.08653770591856447 -0.08653770591856447 -0.08653770591856447 -0.02938765789290733 
-0.02938765789290733 -0.02938765789290733 -0.02938765789290733 0.02787832365104723 0.02787832365104723 0.02787832365104723 0.02787832365104723 0.08503449442099617 0.08503449442099617 
0.08503449442099617 0.08503449442099617 0.1418541039650394 0.1418541039650394 0.1418541039650394 0.1418541039650394 0.1981182732281546 0.1981182732281546 0.1981182732281546 
0.1981182732281546 0.2535807605958624 0.2535807605958624 0.2535807605958624 0.2535807605958624 0.3081312466055945 0.3081312466055945 0.3081312466055945 0.3081312466055945 
0.3610695978287717 0.3610695978287717 0.3610695978287717 0.3610695978287717 0.4143428842625366 0.4143428842625366 0.4143428842625366 0.4143428842625366 0.4581874939170064 
0.4581874939170064 0.4581874939170064 0.4581874939170064 0.5347119534429321 0.5347119534429321 0.5347119534429321 0.5347119534429321 0.5629910764417163 0.5629910764417163 
0.5629910764417163 0.5629910764417163 0.5887260774544063 0.5887260774544063 0.5887260774544063 0.5887260774544063 0.6251368911234094 0.6251368911234094 0.6251368911234094 
0.6251368911234094 0.6621648588824096 0.6621648588824096 0.6621648588824096 0.6621648588824096 0.6973135553257304 0.6973135553257304 0.6973135553257304 0.6973135553257304 
0.729888451031354 0.729888451031354 0.729888451031354 0.729888451031354 0.7596298428492769 0.7596298428492769 0.7596298428492769 0.7596298428492769 0.7863885428014803 
0.7863885428014803 0.7863885428014803 0.7863885428014803 0.8100500476324513 0.8100500476324513 0.8100500476324513 0.8100500476324513 0.8305174914060538 0.8305174914060538 
0.8305174914060538 0.8305174914060538 0.8477082326280645 0.8477082326280645 0.8477082326280645 0.8477082326280645 0.861553347129729 0.861553347129729 0.861553347129729 
0.861553347129729 0.8719976168034729 0.8719976168034729 0.8719976168034729 0.8719976168034729 0.8789995662345543 0.8789995662345543 0.8789995662345543 0.8789995662345543 
0.8825314440796014 0.8825314440796014 0.8825314440796014 0.8825314440796014 0.8825797752449464 0.8825797752449464 0.8825797752449464 0.8825797752449464 0.8791448983287493 
0.8791448983287493 0.8791448983287493 0.8791448983287493 0.8722403128566391 0.8722403128566391 0.8722403128566391 0.8722403128566391 0.8618932113067991 0.8618932113067991 
0.8618932113067991 0.8618932113067991 0.8481445132535781 0.8481445132535781 0.8481445132535781 0.8481445132535781 0.8310485939300956 0.8310485939300956 0.8310485939300956 
0.8310485939300956 0.8106729853050673 0.8106729853050673 0.8106729853050673 0.8106729853050673 0.7870980488938609 0.7870980488938609 0.7870980488938609 0.7870980488938609 
0.7604167241220778 0.7604167241220778 0.7604167241220778 0.7604167241220778 0.7307343535780585 0.7307343535780585 0.7307343535780585 0.7307343535780585 0.698168526891366 
0.698168526891366 0.698168526891366 0.698168526891366 0.6628485172599244 0.6628485172599244 0.6628485172599244 0.6628485172599244 0.6249136486003355 0.6249136486003355 
0.6249136486003355 0.6249136486003355 0.5845105708791841 0.5845105708791841 0.5845105708791841 0.5845105708791841 0.5417914611576899 0.5417914611576899 0.5417914611576899 
0.5417914611576899 0.4969176737061906 0.4969176737061906 0.4969176737061906 0.4969176737061906 0.4500734637343481 0.4500734637343481 0.4500734637343481 0.4500734637343481 
0.4014889592453608 0.4014889592453608 0.4014889592453608 0.4014889592453608 0.351460762465002 0.351460762465002 0.351460762465002 0.351460762465002 0.3003487650694298 
0.3003487650694298 0.3003487650694298 0.3003487650694298 0.2485293983267023 0.2485293983267023 0.2485293983267023 0.2485293983267023 0.1963053317173906 0.1963053317173906 
0.1963053317173906 0.1963053317173906 0.1438038197401782 0.1438038197401782 0.1438038197401782 0.1438038197401782 0.09092090836182266 0.09092090836182266 0.09092090836182266 
0.09092090836182266 0.03736400446958418 0.03736400446958418 0.03736400446958418 0.03736400446958418 -0.01719690478523785 -0.01719690478523785 -0.01719690478523785 -0.01719690478523785 
-0.0729207472926431 -0.0729207472926431 -0.0729207472926431 -0.0729207472926431 -0.1296250998427438 -0.1296250998427438 -0.1296250998427438 -0.1296250998427438 -0.1867441004381269 
-0.1867441004381269 -0.1867441004381269 -0.1867441004381269 -0.2434457019931175 -0.2434457019931175 -0.2434457019931175 -0.2434457019931175 -0.2988586900636385 -0.2988586900636385 
-0.2988586900636385 -0.2988586900636385 -0.3523043996189145 -0.3523043996189145 -0.3523043996189145 -0.3523043996189145 -0.4034301673256253 -0.4034301673256253 -0.4034301673256253 
-0.4034301673256253 -0.4521977674458027 -0.4521977674458027 -0.4521977674458027 -0.4521977674458027 -0.4987548161504297 -0.4987548161504297 -0.4987548161504297 -0.4987548161504297 
-0.5432673317399512 -0.5432673317399512 -0.5432673317399512 -0.5432673317399512 -0.5857939211586968 -0.5857939211586968 -0.5857939211586968 -0.5857939211586968 -0.6262439701425928 
-0.6262439701425928 -0.6262439701425928 -0.6262439701425928 -0.6644124083170797 -0.6644124083170797 -0.6644124083170797 -0.6644124083170797 -0.7000508778094232 -0.7000508778094232 
-0.7000508778094232 -0.7000508778094232 -0.7329317069353404 -0.7329317069353404 -0.7329317069353404 -0.7329317069353404 -0.762879939911584 -0.762879939911584 -0.762879939911584 
-0.762879939911584 -0.7897728889441458 -0.7897728889441458 -0.7897728889441458 -0.7897728889441458 -0.81352200198497 -0.81352200198497 -0.81352200198497 -0.81352200198497 
-0.8340537738679452 -0.8340537738679452 -0.8340537738679452 -0.8340537738679452 -0.8512992883238002 -0.8512992883238002 -0.8512992883238002 -0.8512992883238002 -0.8651931862147002 
-0.8651931862147002 -0.8651931862147002 -0.8651931862147002 -0.8756778351968122 -0.8756778351968122 -0.8756778351968122 -0.8756778351968122 -0.88270800988083 -0.88270800988083 
-0.88270800988083 -0.88270800988083 -0.8862534949564398 -0.8862534949564398 -0.8862534949564398 -0.8862534949564398 -0.8863000734755202 -0.8863000734755202 -0.8863000734755202 
-0.8863000734755202 -0.8828483549245598 -0.8828483549245598 -0.8828483549245598 -0.8828483549245598 -0.8759123272217556 -0.8759123272217556 -0.8759123272217556 -0.8759123272217556 
-0.8655195021101553 -0.8655195021101553 -0.8655195021101553 -0.8655195021101553 -0.8517109389334196 -0.8517109389334196 -0.8517109389334196 -0.8517109389334196 -0.8345411195836522 
-0.8345411195836522 -0.8345411195836522 -0.8345411195836522 -0.8140777846296603 -0.8140777846296603 -0.8140777846296603 -0.8140777846296603 -0.7904016673956127 -0.7904016673956127 
-0.7904016673956127 -0.7904016673956127 -0.7636061955743385 -0.7636061955743385 -0.7636061955743385 -0.7636061955743385 -0.7337971172307873 -0.7337971172307873 -0.7337971172307873 
-0.7337971172307873 -0.7010920768498836 -0.7010920768498836 -0.7010920768498836 -0.7010920768498836 -0.6656201465441152 -0.6656201465441152 -0.6656201465441152 -0.6656201465441152 
-0.627521316686047 -0.627521316686047 -0.627521316686047 -0.627521316686047 -0.5869459451001788 -0.5869459451001788 -0.5869459451001788 -0.5869459451001788 -0.5440541643671848 
-0.5440541643671848 -0.5440541643671848 -0.5440541643671848 -0.4990152495741323 -0.4990152495741323 -0.4990152495741323 -0.4990152495741323 -0.4520069495757011 -0.4520069495757011 
-0.4520069495757011 -0.4520069495757011 -0.4032147850986981 -0.4032147850986981 -0.4032147850986981 -0.4032147850986981 -0.3528313165469227 -0.3528313165469227 -0.3528313165469227 
-0.3528313165469227 -0.3010553842556268 -0.3010553842556268 -0.3010553842556268 -0.3010553842556268 -0.2480913239364201 -0.2480913239364201 -0.2480913239364201 -0.2480913239364201 
-0.1941481605222184 -0.1941481605222184 -0.1941481605222184 -0.1941481605222184 -0.1394387824927028 -0.1394387824927028 -0.1394387824927028 -0.1394387824927028 -0.08417910529457714 
-0.08417910529457714 -0.08417910529457714 -0.08417910529457714 -0.02858720196279772 -0.02858720196279772 -0.02858720196279772 -0.02858720196279772 0.02711747714253858 0.02711747714253858 
0.02711747714253858 0.02711747714253858 0.08271534223975643 0.08271534223975643 0.08271534223975643 0.08271534223975643 0.1379858257885383 0.1379858257885383 0.1379858257885383 
0.1379858257885383 0.1927160135471967 0.1927160135471967 0.1927160135471967 0.1927160135471967 0.2466663840694102 0.2466663840694102 0.2466663840694102 0.2466663840694102 
0.2997296301068357 0.2997296301068357 0.2997296301068357 0.2997296301068357 0.3512244680336145 0.3512244680336145 0.3512244680336145 0.3512244680336145 0.4030473219723241 
0.4030473219723241 0.4030473219723241 0.4030473219723241 0.44568457186336 0.44568457186336 0.44568457186336 0.44568457186336 0.5201393512340112 0.5201393512340112 
0.5201393512340112 0.5201393512340112 0.5441235540965548 0.5441235540965548 0.5441235540965548 0.5441235540965548 0.5689730913973033 0.5689730913973033 0.5689730913973033 
0.5689730913973033 0.6041657212020729 0.6041657212020729 0.6041657212020729 0.6041657212020729 0.639971018075137 0.639971018075137 0.639971018075137 0.639971018075137 
0.6739573275466114 0.6739573275466114 0.6739573275466114 0.6739573275466114 0.7054476480826901 0.7054476480826901 0.7054476480826901 0.7054476480826901 0.7341917276093122 
0.7341917276093122 0.7341917276093122 0.7341917276093122 0.7600485570833531 0.7600485570833531 0.7600485570833531 0.7600485570833531 0.7829106753028574 0.7829106753028574 
0.7829106753028574 0.7829106753028574 0.8026866617922879 0.8026866617922879 0.8026866617922879 0.8026866617922879 0.819297656893317 0.819297656893317 0.819297656893317 
0.819297656893317 0.8326771283801723 0.8326771283801723 0.8326771283801723 0.8326771283801723 0.8427712470573581 0.8427712470573581 0.8427712470573581 0.8427712470573581 
0.8495392931280717 0.8495392931280717 0.8495392931280717 0.8495392931280717 0.8529540390453885 0.8529540390453885 0.8529540390453885 0.8529540390453885 0.8530020390464286 
0.8530020390464286 0.8530020390464286 0.8530020390464286 0.8496832520561851 0.8496832520561851 0.8496832520561851 0.8496832520561851 0.8430107555594648 0.8430107555594648 
0.8430107555594648 0.8430107555594648 0.8330108502830537 0.8330108502830537 0.8330108502830537 0.8330108502830537 0.8197231032714921 0.8197231032714921 0.8197231032714921 
0.8197231032714921 0.8032001527927705 0.8032001527927705 0.8032001527927705 0.8032001527927705 0.7835073451049742 0.7835073451049742 0.7835073451049742 0.7835073451049742 
0.7607224107795048 0.7607224107795048 0.7607224107795048 0.7607224107795048 0.7349352034388765 0.7349352034388765 0.7349352034388765 0.7349352034388765 0.7062475392869174 
0.7062475392869174 0.7062475392869174 0.7062475392869174 0.6747730576801693 0.6747730576801693 0.6747730576801693 0.6747730576801693 0.6406366859495134 0.6406366859495134 
0.6406366859495134 0.6406366859495134 0.6039730721584704 0.6039730721584704 0.6039730721584704 0.6039730721584704 0.5649239638311403 0.5649239638311403 0.5649239638311403 
0.5649239638311403 0.5236364754671956 0.5236364754671956 0.5236364754671956 0.5236364754671956 0.4802666019340353 0.4802666019340353 0.4802666019340353 0.4802666019340353 
0.4349924409528795 0.4349924409528795 0.4349924409528795 0.4349924409528795 0.3880363444255189 0.3880363444255189 0.3880363444255189 0.3880363444255189 0.3396848118600843 
0.3396848118600843 0.3396848118600843 0.3396848118600843 0.2902854684235239 0.2902854684235239 0.2902854684235239 0.2902854684235239 0.2402020090556073 0.2402020090556073 
0.2402020090556073 0.2402020090556073 0.1897270549200399 0.1897270549200399 0.1897270549200399 0.1897270549200399 0.13898394119768 0.13898394119768 0.13898394119768 
0.13898394119768 0.08787266703803756 0.08787266703803756 0.08787266703803756 0.08787266703803756 0.03611079136375668 0.03611079136375668 0.03611079136375668 0.03611079136375668 
-0.01662064315006784 -0.01662064315006784 -0.01662064315006784 -0.01662064315006784 -0.07047564541053575 -0.07047564541053575 -0.07047564541053575 -0.07047564541053575 -0.1252785345722645 
-0.1252785345722645 -0.1252785345722645 -0.1252785345722645 -0.1804829403791773 -0.1804829403791773 -0.1804829403791773 -0.1804829403791773 -0.2352848547382992 -0.2352848547382992 
-0.2352848547382992 -0.2352848547382992 -0.2888419814302419 -0.2888419814302419 -0.2888419814302419 -0.2888419814302419 -0.3404978662251991 -0.3404978662251991 -0.3404978662251991 
-0.3404978662251991 -0.3899111725944751 -0.3899111725944751 -0.3899111725944751 -0.3899111725944751 -0.4370447371738208 -0.4370447371738208 -0.4370447371738208 -0.4370447371738208 
-0.4820413324422368 -0.4820413324422368 -0.4820413324422368 -0.4820413324422368 -0.5250617108567814 -0.5250617108567814 -0.5250617108567814 -0.5250617108567814 -0.5661628115241634 
-0.5661628115241634 -0.5661628115241634 -0.5661628115241634 -0.6052572095023666 -0.6052572095023666 -0.6052572095023666 -0.6052572095023666 -0.6421466895106061 -0.6421466895106061 
-0.6421466895106061 -0.6421466895106061 -0.6765910981816218 -0.6765910981816218 -0.6765910981816218 -0.6765910981816218 -0.708370269767133 -0.708370269767133 -0.708370269767133 
-0.708370269767133 -0.737315044973065 -0.737315044973065 -0.737315044973065 -0.737315044973065 -0.7633068469826725 -0.7633068469826725 -0.7633068469826725 -0.7633068469826725 
-0.7862601296163911 -0.7862601296163911 -0.7862601296163911 -0.7862601296163911 -0.8061038927063997 -0.8061038927063997 -0.8061038927063997 -0.8061038927063997 -0.8227715446125826 
-0.8227715446125826 -0.8227715446125826 -0.8227715446125826 -0.8361999002356288 -0.8361999002356288 -0.8361999002356288 -0.8361999002356288 -0.8463332173490441 -0.8463332173490441 
-0.8463332173490441 -0.8463332173490441 -0.8531277560339247 -0.8531277560339247 -0.8531277560339247 -0.8531277560339247 -0.8565544705075263 -0.8565544705075263 -0.8565544705075263 
-0.8565544705075263 -0.8565996049943365 -0.8565996049943365 -0.8565996049943365 -0.8565996049943365 -0.853263605686999 -0.853263605686999 -0.853263605686999 -0.853263605686999 
-0.8465600960074235 -0.8465600960074235 -0.8465600960074235 -0.8465600960074235 -0.83651565766026 -0.83651565766026 -0.83651565766026 -0.83651565766026 -0.823169916897924 
-0.823169916897924 -0.823169916897924 -0.823169916897924 -0.8065755312804957 -0.8065755312804957 -0.8065755312804957 -0.8065755312804957 -0.7867979797846023 -0.7867979797846023 
-0.7867979797846023 -0.7867979797846023 -0.7639153065917113 -0.7639153065917113 -0.7639153065917113 -0.7639153065917113 -0.7380178135786798 -0.7380178135786798 -0.7380178135786798 
-0.7380178135786798 -0.7092077028066199 -0.7092077028066199 -0.7092077028066199 -0.7092077028066199 -0.677598673104996 -0.677598673104996 -0.677598673104996 -0.677598673104996 
-0.643315469740288 -0.643315469740288 -0.643315469740288 -0.643315469740288 -0.6064933922980849 -0.6064933922980849 -0.6064933922980849 -0.6064933922980849 -0.5672777608354085 