Title = Result/Post/Linear_Advection_2D/FVM/MLP_u1_Least_Square/Sine_Wave_2D/Quad100/
FileType = Solution
Variables = q
Zone T = Result/Post/Linear_Advection_2D/FVM/MLP_u1_Least_Square/Sine_Wave_2D/Quad100/
ZoneType = FETriangle
Nodes = 40000
Elements = 20000
DataPacking = Block
StrandID = 6
SolutionTime = 0.5
0.0614368475011729 0.0614368475011729 0.0614368475011729 0.0614368475011729 0.09951517123561784 0.09951517123561784 0.09951517123561784 0.09951517123561784 0.1555934434812852 0.1555934434812852 
0.1555934434812852 0.1555934434812852 0.2154027626625064 0.2154027626625064 0.2154027626625064 0.2154027626625064 0.2753805245610729 0.2753805245610729 0.2753805245610729 
0.2753805245610729 0.3345100937944868 0.3345100937944868 0.3345100937944868 0.3345100937944868 0.3923742393836952 0.3923742393836952 0.3923742393836952 0.3923742393836952 
0.4487014429245998 0.4487014429245998 0.4487014429245998 0.4487014429245998 0.5032594685935267 0.5032594685935267 0.5032594685935267 0.5032594685935267 0.5558309154495948 
0.5558309154495948 0.5558309154495948 0.5558309154495948 0.6062080598999298 0.6062080598999298 0.6062080598999298 0.6062080598999298 0.6541922343333451 0.6541922343333451 
0.6541922343333451 0.6541922343333451 0.6995942653097639 0.6995942653097639 0.6995942653097639 0.6995942653097639 0.742235140107331 0.742235140107331 0.742235140107331 
0.742235140107331 0.7819466954795091 0.7819466954795091 0.7819466954795091 0.7819466954795091 0.8185722835721572 0.8185722835721572 0.8185722835721572 0.8185722835721572 
0.8519674024476087 0.8519674024476087 0.8519674024476087 0.8519674024476087 0.8820002555513673 0.8820002555513673 0.8820002555513673 0.8820002555513673 0.9085522689387823 
0.9085522689387823 0.9085522689387823 0.9085522689387823 0.9315186839758974 0.9315186839758974 0.9315186839758974 0.9315186839758974 0.9508090563663797 0.9508090563663797 
0.9508090563663797 0.9508090563663797 0.9663471152366201 0.9663471152366201 0.9663471152366201 0.9663471152366201 0.9780708023494642 0.9780708023494642 0.9780708023494642 
0.9780708023494642 0.985932810520037 0.985932810520037 0.985932810520037 0.985932810520037 0.98990195971885 0.98990195971885 0.98990195971885 0.98990195971885 
0.9899660452315171 0.9899660452315171 0.9899660452315171 0.9899660452315171 0.9861282226514057 0.9861282226514057 0.9861282226514057 0.9861282226514057 0.9783992458418698 
0.9783992458418698 0.9783992458418698 0.9783992458418698 0.966807929112427 0.966807929112427 0.966807929112427 0.966807929112427 0.9513995929336515 0.9513995929336515 
0.9513995929336515 0.9513995929336515 0.9322354727730319 0.9322354727730319 0.9322354727730319 0.9322354727730319 0.9093918095857717 0.9093918095857717 0.9093918095857717 
0.9093918095857717 0.8829591101934797 0.8829591101934797 0.8829591101934797 0.8829591101934797 0.853041877011576 0.853041877011576 0.853041877011576 0.853041877011576 
0.8197585494994124 0.8197585494994124 0.8197585494994124 0.8197585494994124 0.7832410506068856 0.7832410506068856 0.7832410506068856 0.7832410506068856 0.7436334998103025 
0.7436334998103025 0.7436334998103025 0.7436334998103025 0.7010900869021763 0.7010900869021763 0.7010900869021763 0.7010900869021763 0.6557732656851498 0.6557732656851498 
0.6557732656851498 0.6557732656851498 0.6078549339487487 0.6078549339487487 0.6078549339487487 0.6078549339487487 0.5575239217926521 0.5575239217926521 0.5575239217926521 
0.5575239217926521 0.505001014574241 0.505001014574241 0.505001014574241 0.505001014574241 0.4505570392510395 0.4505570392510395 0.4505570392510395 0.4505570392510395 
0.3945222334937811 0.3945222334937811 0.3945222334937811 0.3945222334937811 0.3372713339568592 0.3372713339568592 0.3372713339568592 0.3372713339568592 0.2791743211312254 
0.2791743211312254 0.2791743211312254 0.2791743211312254 0.2205192560196367 0.2205192560196367 0.2205192560196367 0.2205192560196367 0.1614351161071009 0.1614351161071009 
0.1614351161071009 0.1614351161071009 0.1018562394194215 0.1018562394194215 0.1018562394194215 0.1018562394194215 0.0415633454431807 0.0415633454431807 0.0415633454431807 
0.0415633454431807 -0.01969391677607579 -0.01969391677607579 -0.01969391677607579 -0.01969391677607579 -0.08202964063188402 -0.08202964063188402 -0.08202964063188402 -0.08202964063188402 
-0.1452773707536792 -0.1452773707536792 -0.1452773707536792 -0.1452773707536792 -0.2089367873470938 -0.2089367873470938 -0.2089367873470938 -0.2089367873470938 -0.2722437215025233 
-0.2722437215025233 -0.2722437215025233 -0.2722437215025233 -0.334340473187085 -0.334340473187085 -0.334340473187085 -0.334340473187085 -0.3944769017824743 -0.3944769017824743 
-0.3944769017824743 -0.3944769017824743 -0.4521599869763333 -0.4521599869763333 -0.4521599869763333 -0.4521599869763333 -0.5071967451741111 -0.5071967451741111 -0.5071967451741111 
-0.5071967451741111 -0.5596267761771563 -0.5596267761771563 -0.5596267761771563 -0.5596267761771563 -0.6095885518842488 -0.6095885518842488 -0.6095885518842488 -0.6095885518842488 
-0.6571845788209335 -0.6571845788209335 -0.6571845788209335 -0.6571845788209335 -0.7023983728435003 -0.7023983728435003 -0.7023983728435003 -0.7023983728435003 -0.7450824593199212 
-0.7450824593199212 -0.7450824593199212 -0.7450824593199212 -0.7850018889946937 -0.7850018889946937 -0.7850018889946937 -0.7850018889946937 -0.8218988184449777 -0.8218988184449777 
-0.8218988184449777 -0.8218988184449777 -0.8555454798953753 -0.8555454798953753 -0.8555454798953753 -0.8555454798953753 -0.8857686915234325 -0.8857686915234325 -0.8857686915234325 
-0.8857686915234325 -0.912447292162621 -0.912447292162621 -0.912447292162621 -0.912447292162621 -0.9354951220940313 -0.9354951220940313 -0.9354951220940313 -0.9354951220940313 
-0.9548431887209374 -0.9548431887209374 -0.9548431887209374 -0.9548431887209374 -0.970428756414381 -0.970428756414381 -0.970428756414381 -0.970428756414381 -0.9821934149390829 
-0.9821934149390829 -0.9821934149390829 -0.9821934149390829 -0.9900870984791138 -0.9900870984791138 -0.9900870984791138 -0.9900870984791138 -0.994074103402793 -0.994074103402793 
-0.994074103402793 -0.994074103402793 -0.9941389931096231 -0.9941389931096231 -0.9941389931096231 -0.9941389931096231 -0.9902838147176811 -0.9902838147176811 -0.9902838147176811 
-0.9902838147176811 -0.9825196994565448 -0.9825196994565448 -0.9825196994565448 -0.9825196994565448 -0.9708764086581516 -0.9708764086581516 -0.9708764086581516 -0.9708764086581516 
-0.9554001122626313 -0.9554001122626313 -0.9554001122626313 -0.9554001122626313 -0.9361526053797737 -0.9361526053797737 -0.9361526053797737 -0.9361526053797737 -0.9132104944955565 
-0.9132104944955565 -0.9132104944955565 -0.9132104944955565 -0.8866645826218631 -0.8866645826218631 -0.8866645826218631 -0.8866645826218631 -0.8566195856005698 -0.8566195856005698 
-0.8566195856005698 -0.8566195856005698 -0.8231939646181297 -0.8231939646181297 -0.8231939646181297 -0.8231939646181297 -0.7865195787210262 -0.7865195787210262 -0.7865195787210262 
-0.7865195787210262 -0.7467411658819298 -0.7467411658819298 -0.7467411658819298 -0.7467411658819298 -0.7040157204953574 -0.7040157204953574 -0.7040157204953574 -0.7040157204953574 
-0.6585118629896787 -0.6585118629896787 -0.6585118629896787 -0.6585118629896787 -0.6104091385926163 -0.6104091385926163 -0.6104091385926163 -0.6104091385926163 -0.559897498705932 
-0.559897498705932 -0.559897498705932 -0.559897498705932 -0.5071757727676219 -0.5071757727676219 -0.5071757727676219 -0.5071757727676219 -0.4524542667838103 -0.4524542667838103 
-0.4524542667838103 -0.4524542667838103 -0.3959392950699864 -0.3959392950699864 -0.3959392950699864 -0.3959392950699864 -0.3378954742199265 -0.3378954742199265 -0.3378954742199265 
-0.3378954742199265 -0.2783731462963905 -0.2783731462963905 -0.2783731462963905 -0.2783731462963905 -0.218373869014268 -0.218373869014268 -0.218373869014268 -0.218373869014268 
-0.1548531911873535 -0.1548531911873535 -0.1548531911873535 -0.1548531911873535 -0.1020729974758293 -0.1020729974758293 -0.1020729974758293 -0.1020729974758293 -0.0006511876357923746 
-0.0006511876357923746 -0.0006511876357923746 -0.0006511876357923746 0.06122212934825461 0.06122212934825461 0.06122212934825461 0.06122212934825461 0.09923133147182972 0.09923133147182972 
0.09923133147182972 0.09923133147182972 0.1550947699163256 0.1550947699163256 0.1550947699163256 0.1550947699163256 0.2146699940995336 0.2146699940995336 0.2146699940995336 
0.2146699940995336 0.2744207181822915 0.2744207181822915 0.2744207181822915 0.2744207181822915 0.333333740744267 0.333333740744267 0.333333740744267 0.333333740744267 
0.3909912583332922 0.3909912583332922 0.3909912583332922 0.3909912583332922 0.4471206637362057 0.4471206637362057 0.4471206637362057 0.4471206637362057 0.5014889224272521 
0.5014889224272521 0.5014889224272521 0.5014889224272521 0.5538782564162521 0.5538782564162521 0.5538782564162521 0.5538782564162521 0.6040809614741784 0.6040809614741784 
0.6040809614741784 0.6040809614741784 0.6518986999785148 0.6518986999785148 0.6518986999785148 0.6518986999785148 0.6971428384904954 0.6971428384904954 0.6971428384904954 
0.6971428384904954 0.7396350195654887 0.7396350195654887 0.7396350195654887 0.7396350195654887 0.7792077726819724 0.7792077726819724 0.7792077726819724 0.7792077726819724 
0.8157051245068888 0.8157051245068888 0.8157051245068888 0.8157051245068888 0.8489831929063627 0.8489831929063627 0.8489831929063627 0.8489831929063627 0.8789107237952556 
0.8789107237952556 0.8789107237952556 0.8789107237952556 0.9053696070335027 0.9053696070335027 0.9053696070335027 0.9053696070335027 0.9282554837155864 0.9282554837155864 
0.9282554837155864 0.9282554837155864 0.9474782563024744 0.9474782563024744 0.9474782563024744 0.9474782563024744 0.9629620069788049 0.9629620069788049 0.9629620069788049 
0.9629620069788049 0.9746448387969786 0.9746448387969786 0.9746448387969786 0.9746448387969786 0.9824795495996193 0.9824795495996193 0.9824795495996193 0.9824795495996193 
0.9864354975119688 0.9864354975119688 0.9864354975119688 0.9864354975119688 0.9864999149635386 0.9864999149635386 0.9864999149635386 0.9864999149635386 0.9826743755112727 
0.9826743755112727 0.9826743755112727 0.9826743755112727 0.9749721399143763 0.9749721399143763 0.9749721399143763 0.9749721399143763 0.963421381544902 0.963421381544902 
0.963421381544902 0.963421381544902 0.9480670436253098 0.9480670436253098 0.9480670436253098 0.9480670436253098 0.9289700680122803 0.9289700680122803 0.9289700680122803 
0.9289700680122803 0.9062064491622848 0.9062064491622848 0.9062064491622848 0.9062064491622848 0.8798663857272626 0.8798663857272626 0.8798663857272626 0.8798663857272626 
0.8500540125114135 0.8500540125114135 0.8500540125114135 0.8500540125114135 0.8168873349009758 0.8168873349009758 0.8168873349009758 0.8168873349009758 0.7804978017905359 
0.7804978017905359 0.7804978017905359 0.7804978017905359 0.7410290228804863 0.7410290228804863 0.7410290228804863 0.7410290228804863 0.6986346535511976 0.6986346535511976 
0.6986346535511976 0.6986346535511976 0.6534765981831134 0.6534765981831134 0.6534765981831134 0.6534765981831134 0.6057261862877581 0.6057261862877581 0.6057261862877581 
0.6057261862877581 0.555571623523752 0.555571623523752 0.555571623523752 0.555571623523752 0.5032329360062829 0.5032329360062829 0.5032329360062829 0.5032329360062829 
0.4489799623029243 0.4489799623029243 0.4489799623029243 0.4489799623029243 0.3931416758097767 0.3931416758097767 0.3931416758097767 0.3931416758097767 0.3360913508204338 
0.3360913508204338 0.3360913508204338 0.3360913508204338 0.2781975486576655 0.2781975486576655 0.2781975486576655 0.2781975486576655 0.2197473095215948 0.2197473095215948 
0.2197473095215948 0.2197473095215948 0.1608693096526283 0.1608693096526283 0.1608693096526283 0.1608693096526283 0.1014984023072654 0.1014984023072654 0.1014984023072654 
0.1014984023072654 0.04141638335835329 0.04141638335835329 0.04141638335835329 0.04141638335835329 -0.01962603811754249 -0.01962603811754249 -0.01962603811754249 -0.01962603811754249 
-0.0817426033623127 -0.0817426033623127 -0.0817426033623127 -0.0817426033623127 -0.1447677157499564 -0.1447677157499564 -0.1447677157499564 -0.1447677157499564 -0.2082031940673324 
-0.2082031940673324 -0.2082031940673324 -0.2082031940673324 -0.2712878681878151 -0.2712878681878151 -0.2712878681878151 -0.2712878681878151 -0.3331671615772532 -0.3331671615772532 
-0.3331671615772532 -0.3331671615772532 -0.3930934446260888 -0.3930934446260888 -0.3930934446260888 -0.3930934446260888 -0.4505751535424927 -0.4505751535424927 -0.4505751535424927 
-0.4505751535424927 -0.5054196989686407 -0.5054196989686407 -0.5054196989686407 -0.5054196989686407 -0.5576663722204667 -0.5576663722204667 -0.5576663722204667 -0.5576663722204667 
-0.6074531487173662 -0.6074531487173662 -0.6074531487173662 -0.6074531487173662 -0.654882285226246 -0.654882285226246 -0.654882285226246 -0.654882285226246 -0.6999375018902241 
-0.6999375018902241 -0.6999375018902241 -0.6999375018902241 -0.7424719478349578 -0.7424719478349578 -0.7424719478349578 -0.7424719478349578 -0.7822515303743784 -0.7822515303743784 
-0.7822515303743784 -0.7822515303743784 -0.8190192820305284 -0.8190192820305284 -0.8190192820305284 -0.8190192820305284 -0.8525481807194276 -0.8525481807194276 -0.8525481807194276 
-0.8525481807194276 -0.8826656041128367 -0.8826656041128367 -0.8826656041128367 -0.8826656041128367 -0.9092507930843088 -0.9092507930843088 -0.9092507930843088 -0.9092507930843088 
-0.9322179012883733 -0.9322179012883733 -0.9322179012883733 -0.9322179012883733 -0.9514982158855496 -0.9514982158855496 -0.9514982158855496 -0.9514982158855496 -0.9670293252449342 
-0.9670293252449342 -0.9670293252449342 -0.9670293252449342 -0.9787529841997598 -0.9787529841997598 -0.9787529841997598 -0.9787529841997598 -0.9866192534001084 -0.9866192534001084 
-0.9866192534001084 -0.9866192534001084 -0.99059299275045 -0.99059299275045 -0.99059299275045 -0.99059299275045 -0.9906582177740517 -0.9906582177740517 -0.9906582177740517 
-0.9906582177740517 -0.9868153906879109 -0.9868153906879109 -0.9868153906879109 -0.9868153906879109 -0.979078159211157 -0.979078159211157 -0.979078159211157 -0.979078159211157 
-0.9674756323643652 -0.9674756323643652 -0.9674756323643652 -0.9674756323643652 -0.9520535926670126 -0.9520535926670126 -0.9520535926670126 -0.9520535926670126 -0.9328735339954011 
-0.9328735339954011 -0.9328735339954011 -0.9328735339954011 -0.9100118127983232 -0.9100118127983232 -0.9100118127983232 -0.9100118127983232 -0.8835589240950591 -0.8835589240950591 
-0.8835589240950591 -0.8835589240950591 -0.8536192195849598 -0.8536192195849598 -0.8536192195849598 -0.8536192195849598 -0.8203107325130186 -0.8203107325130186 -0.8203107325130186 
-0.8203107325130186 -0.7837648549461107 -0.7837648549461107 -0.7837648549461107 -0.7837648549461107 -0.7441258173601342 -0.7441258173601342 -0.7441258173601342 -0.7441258173601342 
-0.7015500664131831 -0.7015500664131831 -0.7015500664131831 -0.7015500664131831 -0.6562056336548394 -0.6562056336548394 -0.6562056336548394 -0.6562056336548394 -0.608271436284482 
-0.608271436284482 -0.608271436284482 -0.608271436284482 -0.5579367591705525 -0.5579367591705525 -0.5579367591705525 -0.5579367591705525 -0.5053997398133756 -0.5053997398133756 
-0.5053997398133756 -0.5053997398133756 -0.4508699263835603 -0.4508699263835603 -0.4508699263835603 -0.4508699263835603 -0.3945530008667019 -0.3945530008667019 -0.3945530008667019 
-0.3945530008667019 -0.3367122614181225 -0.3367122614181225 -0.3367122614181225 -0.3367122614181225 -0.2773995630770769 -0.2773995630770769 -0.2773995630770769 -0.2773995630770769 
-0.217605670552281 -0.217605670552281 -0.217605670552281 -0.217605670552281 -0.1543281641668215 -0.1543281641668215 -0.1543281641668215 -0.1543281641668215 -0.1016453261506941 
-0.1016453261506941 -0.1016453261506941 -0.1016453261506941 -0.0008126502993006518 -0.0008126502993006518 -0.0008126502993006518 -0.0008126502993006518 0.06070371389041712 0.06070371389041712 
0.06070371389041712 0.06070371389041712 0.09843400391652875 0.09843400391652875 0.09843400391652875 0.09843400391652875 0.1538885866660983 0.1538885866660983 0.1538885866660983 
0.1538885866660983 0.2130041386351693 0.2130041386351693 0.2130041386351693 0.2130041386351693 0.272281598908965 0.272281598908965 0.272281598908965 0.272281598908965 
0.3307225431447266 0.3307225431447266 0.3307225431447266 0.3307225431447266 0.3879171224611252 0.3879171224611252 0.3879171224611252 0.3879171224611252 0.4435973885034122 
0.4435973885034122 0.4435973885034122 0.4435973885034122 0.4975330605688375 0.4975330605688375 0.4975330605688375 0.4975330605688375 0.5495079758874428 0.5495079758874428 
0.5495079758874428 0.5495079758874428 0.5993154468055755 0.5993154468055755 0.5993154468055755 0.5993154468055755 0.6467579236038056 0.6467579236038056 0.6467579236038056 
0.6467579236038056 0.6916475596229531 0.6916475596229531 0.6916475596229531 0.6916475596229531 0.7338068907670372 0.7338068907670372 0.7338068907670372 0.7338068907670372 
0.77306946719592 0.77306946719592 0.77306946719592 0.77306946719592 0.8092804298170907 0.8092804298170907 0.8092804298170907 0.8092804298170907 0.8422970437878045 
0.8422970437878045 0.8422970437878045 0.8422970437878045 0.8719891739399717 0.8719891739399717 0.8719891739399717 0.8719891739399717 0.8982397526044982 0.8982397526044982 
0.8982397526044982 0.8982397526044982 0.9209453488944913 0.9209453488944913 0.9209453488944913 0.9209453488944913 0.9400166721922433 0.9400166721922433 0.9400166721922433 
0.9400166721922433 0.9553785664909047 0.9553785664909047 0.9553785664909047 0.9553785664909047 0.9669697998655442 0.9669697998655442 0.9669697998655442 0.9669697998655442 
0.9747436643770049 0.9747436643770049 0.9747436643770049 0.9747436643770049 0.9786695879248664 0.9786695879248664 0.9786695879248664 0.9786695879248664 0.9787338605792232 
0.9787338605792232 0.9787338605792232 0.9787338605792232 0.9749375670783446 0.9749375670783446 0.9749375670783446 0.9749375670783446 0.9672948623672726 0.9672948623672726 
0.9672948623672726 0.9672948623672726 0.9558344334956796 0.9558344334956796 0.9558344334956796 0.9558344334956796 0.9406007727477086 0.9406007727477086 0.9406007727477086 
0.9406007727477086 0.9216541878165903 0.9216541878165903 0.9216541878165903 0.9216541878165903 0.8990699321525699 0.8990699321525699 0.8990699321525699 0.8990699321525699 
0.8729374226106164 0.8729374226106164 0.8729374226106164 0.8729374226106164 0.8433599455166474 0.8433599455166474 0.8433599455166474 0.8433599455166474 0.8104545658950406 
0.8104545658950406 0.8104545658950406 0.8104545658950406 0.7743516910896486 0.7743516910896486 0.7743516910896486 0.7743516910896486 0.7351937973096847 0.7351937973096847 
0.7351937973096847 0.7351937973096847 0.6931333397830208 0.6931333397830208 0.6931333397830208 0.6931333397830208 0.6483309733031739 0.6483309733031739 0.6483309733031739 
0.6483309733031739 0.6009567128353237 0.6009567128353237 0.6009567128353237 0.6009567128353237 0.5511973059300806 0.5511973059300806 0.5511973059300806 0.5511973059300806 
0.4992710304312 0.4992710304312 0.4992710304312 0.4992710304312 0.4454455235179003 0.4454455235179003 0.4454455235179003 0.4454455235179003 0.3900470403204835 
0.3900470403204835 0.3900470403204835 0.3900470403204835 0.3334457906836634 0.3334457906836634 0.3334457906836634 0.3334457906836634 0.276007394766406 0.276007394766406 
0.276007394766406 0.276007394766406 0.2180167476585086 0.2180167476585086 0.2180167476585086 0.2180167476585086 0.1596017799580125 0.1596017799580125 0.1596017799580125 
0.1596017799580125 0.1006981813999921 0.1006981813999921 0.1006981813999921 0.1006981813999921 0.04108968583303452 0.04108968583303452 0.04108968583303452 0.04108968583303452 
-0.01947105867470297 -0.01947105867470297 -0.01947105867470297 -0.01947105867470297 -0.08109719741823249 -0.08109719741823249 -0.08109719741823249 -0.08109719741823249 -0.1436249005127669 
-0.1436249005127669 -0.1436249005127669 -0.1436249005127669 -0.206560325535817 -0.206560325535817 -0.206560325535817 -0.206560325535817 -0.2691484675235258 -0.2691484675235258 
-0.2691484675235258 -0.2691484675235258 -0.3305413288730414 -0.3305413288730414 -0.3305413288730414 -0.3305413288730414 -0.3899967790432263 -0.3899967790432263 -0.3899967790432263 
-0.3899967790432263 -0.4470266940101237 -0.4470266940101237 -0.4470266940101237 -0.4470266940101237 -0.5014397236362451 -0.5014397236362451 -0.5014397236362451 -0.5014397236362451 
-0.553274824237316 -0.553274824237316 -0.553274824237316 -0.553274824237316 -0.6026690744511581 -0.6026690744511581 -0.6026690744511581 -0.6026690744511581 -0.6497242007510708 
-0.6497242007510708 -0.6497242007510708 -0.6497242007510708 -0.6944242706531119 -0.6944242706531119 -0.6944242706531119 -0.6944242706531119 -0.7366236729519127 -0.7366236729519127 
-0.7366236729519127 -0.7366236729519127 -0.7760901106251652 -0.7760901106251652 -0.7760901106251652 -0.7760901106251652 -0.8125685249541033 -0.8125685249541033 -0.8125685249541033 
-0.8125685249541033 -0.8458335726905108 -0.8458335726905108 -0.8458335726905108 -0.8458335726905108 -0.8757139336499532 -0.8757139336499532 -0.8757139336499532 -0.8757139336499532 
-0.9020898018401338 -0.9020898018401338 -0.9020898018401338 -0.9020898018401338 -0.9248760433815236 -0.9248760433815236 -0.9248760433815236 -0.9248760433815236 -0.9440045421441934 
-0.9440045421441934 -0.9440045421441934 -0.9440045421441934 -0.9594135154289877 -0.9594135154289877 -0.9594135154289877 -0.9594135154289877 -0.9710453375874821 -0.9710453375874821 
-0.9710453375874821 -0.9710453375874821 -0.9788505781143353 -0.9788505781143353 -0.9788505781143353 -0.9788505781143353 -0.9827942041544542 -0.9827942041544542 -0.9827942041544542 
-0.9827942041544542 -0.9828593192942883 -0.9828593192942883 -0.9828593192942883 -0.9828593192942883 -0.9790459132135312 -0.9790459132135312 -0.9790459132135312 -0.9790459132135312 
-0.9713685330698909 -0.9713685330698909 -0.9713685330698909 -0.9713685330698909 -0.9598567932339105 -0.9598567932339105 -0.9598567932339105 -0.9598567932339105 -0.944556008163521 
-0.944556008163521 -0.944556008163521 -0.944556008163521 -0.9255270221765867 -0.9255270221765867 -0.9255270221765867 -0.9255270221765867 -0.9028454416168883 -0.9028454416168883 
-0.9028454416168883 -0.9028454416168883 -0.8766009787578466 -0.8766009787578466 -0.8766009787578466 -0.8766009787578466 -0.8468971434792891 -0.8468971434792891 -0.8468971434792891 
-0.8468971434792891 -0.8138510407087407 -0.8138510407087407 -0.8138510407087407 -0.8138510407087407 -0.7775930329264191 -0.7775930329264191 -0.7775930329264191 -0.7775930329264191 
-0.7382662171344128 -0.7382662171344128 -0.7382662171344128 -0.7382662171344128 -0.6960258099777084 -0.6960258099777084 -0.6960258099777084 -0.6960258099777084 -0.6510385214083874 
-0.6510385214083874 -0.6510385214083874 -0.6510385214083874 -0.6034818607454177 -0.6034818607454177 -0.6034818607454177 -0.6034818607454177 -0.5535436225562671 -0.5535436225562671 
-0.5535436225562671 -0.5535436225562671 -0.5014203837349851 -0.5014203837349851 -0.5014203837349851 -0.5014203837349851 -0.4473200419382047 -0.4473200419382047 -0.4473200419382047 
-0.4473200419382047 -0.3914466581584284 -0.3914466581584284 -0.3914466581584284 -0.3914466581584284 -0.3340614615242835 -0.3340614615242835 -0.3340614615242835 -0.3340614615242835 
-0.2752158705287353 -0.2752158705287353 -0.2752158705287353 -0.2752158705287353 -0.21589301578555 -0.21589301578555 -0.21589301578555 -0.21589301578555 -0.1531130109132698 
-0.1531130109132698 -0.1531130109132698 -0.1531130109132698 -0.1008487302302312 -0.1008487302302312 -0.1008487302302312 -0.1008487302302312 -0.0008090413585936905 -0.0008090413585936905 
-0.0008090413585936905 -0.0008090413585936905 0.05997183354312709 0.05997183354312709 0.05997183354312709 0.05997183354312709 0.09724374085581142 0.09724374085581142 0.09724374085581142 
0.09724374085581142 0.1520432023931968 0.1520432023931968 0.1520432023931968 0.1520432023931968 0.2104683541563588 0.2104683541563588 0.2104683541563588 0.2104683541563588 
0.2690506627941189 0.2690506627941189 0.2690506627941189 0.2690506627941189 0.3268006317664685 0.3268006317664685 0.3268006317664685 0.3268006317664685 0.3833136002569984 
0.3833136002569984 0.3833136002569984 0.3833136002569984 0.4383266797041309 0.4383266797041309 0.4383266797041309 0.4383266797041309 0.4916145006137371 0.4916145006137371 
0.4916145006137371 0.4916145006137371 0.5429652301908208 0.5429652301908208 0.5429652301908208 0.5429652301908208 0.5921757012306346 0.5921757012306346 0.5921757012306346 
0.5921757012306346 0.6390510913512707 0.6390510913512707 0.6390510913512707 0.6390510913512707 0.6834056534762183 0.6834056534762183 0.6834056534762183 0.6834056534762183 
0.7250636105967283 0.7250636105967283 0.7250636105967283 0.7250636105967283 0.7638599823012752 0.7638599823012752 0.7638599823012752 0.7638599823012752 0.7996412965588073 
0.7996412965588073 0.7996412965588073 0.7996412965588073 0.8322661902921364 0.8322661902921364 0.8322661902921364 0.8322661902921364 0.8616058996121756 0.8616058996121756 
0.8616058996121756 0.8616058996121756 0.8875447007009615 0.8875447007009615 0.8875447007009615 0.8875447007009615 0.9099804152722892 0.9099804152722892 0.9099804152722892 
0.9099804152722892 0.9288248743944731 0.9288248743944731 0.9288248743944731 0.9288248743944731 0.9440039903996739 0.9440039903996739 0.9440039903996739 0.9440039903996739 
0.9554575695406765 0.9554575695406765 0.9554575695406765 0.9554575695406765 0.9631396880652141 0.9631396880652141 0.9631396880652141 0.9631396880652141 0.9670198761949145 
0.9670198761949145 0.9670198761949145 0.9670198761949145 0.9670837581434972 0.9670837581434972 0.9670837581434972 0.9670837581434972 0.9633319812841845 0.9633319812841845 
0.9633319812841845 0.9633319812841845 0.9557791887462905 0.9557791887462905 0.9557791887462905 0.9557791887462905 0.944454381654168 0.944454381654168 0.944454381654168 
0.944454381654168 0.9294017420921292 0.9294017420921292 0.9294017420921292 0.9294017420921292 0.9106807378898392 0.9106807378898392 0.9106807378898392 0.9106807378898392 
0.8883655189712238 0.8883655189712238 0.8883655189712238 0.8883655189712238 0.8625443106193377 0.8625443106193377 0.8625443106193377 0.8625443106193377 0.833319128189881 
0.833319128189881 0.833319128189881 0.833319128189881 0.800805641444583 0.800805641444583 0.800805641444583 0.800805641444583 0.7651327050242928 0.7651327050242928 
0.7651327050242928 0.7651327050242928 0.7264410981731095 0.7264410981731095 0.7264410981731095 0.7264410981731095 0.6848814709389088 0.6848814709389088 0.6848814709389088 
0.6848814709389088 0.6406125918711998 0.6406125918711998 0.6406125918711998 0.6406125918711998 0.5938024874093089 0.5938024874093089 0.5938024874093089 0.5938024874093089 
0.5446357041286402 0.5446357041286402 0.5446357041286402 0.5446357041286402 0.4933279004510064 0.4933279004510064 0.4933279004510064 0.4933279004510064 0.4401434440129231 
0.4401434440129231 0.4401434440129231 0.4401434440129231 0.3854045741979952 0.3854045741979952 0.3854045741979952 0.3854045741979952 0.329476972483446 0.329476972483446 
0.329476972483446 0.329476972483446 0.2727218820534248 0.2727218820534248 0.2727218820534248 0.2727218820534248 0.2154209438092168 0.2154209438092168 0.2154209438092168 
0.2154209438092168 0.1577008538818385 0.1577008538818385 0.1577008538818385 0.1577008538818385 0.0994983988311105 0.0994983988311105 0.0994983988311105 0.0994983988311105 
0.04060009296474618 0.04060009296474618 0.04060009296474618 0.04060009296474618 -0.01923852970669839 -0.01923852970669839 -0.01923852970669839 -0.01923852970669839 -0.08012961090710327 
-0.08012961090710327 -0.08012961090710327 -0.08012961090710327 -0.1419117681833853 -0.1419117681833853 -0.1419117681833853 -0.1419117681833853 -0.2040974629137514 -0.2040974629137514 
-0.2040974629137514 -0.2040974629137514 -0.2659408277563947 -0.2659408277563947 -0.2659408277563947 -0.2659408277563947 -0.3266037661337537 -0.3266037661337537 -0.3266037661337537 
-0.3266037661337537 -0.3853525473509785 -0.3853525473509785 -0.3853525473509785 -0.3853525473509785 -0.4417043965993203 -0.4417043965993203 -0.4417043965993203 -0.4417043965993203 
-0.4954699604481437 -0.4954699604481437 -0.4954699604481437 -0.4954699604481437 -0.5466877264314876 -0.5466877264314876 -0.5466877264314876 -0.5466877264314876 -0.595493363666609 
-0.595493363666609 -0.595493363666609 -0.595493363666609 -0.6419876919493325 -0.6419876919493325 -0.6419876919493325 -0.6419876919493325 -0.6861552031622131 -0.6861552031622131 
-0.6861552031622131 -0.6861552031622131 -0.7278521022617169 -0.7278521022617169 -0.7278521022617169 -0.7278521022617169 -0.7668487984368807 -0.7668487984368807 -0.7668487984368807 
-0.7668487984368807 -0.8028931398940484 -0.8028931398940484 -0.8028931398940484 -0.8028931398940484 -0.8357623466864924 -0.8357623466864924 -0.8357623466864924 -0.8357623466864924 
-0.8652870810376215 -0.8652870810376215 -0.8652870810376215 -0.8652870810376215 -0.8913489715562106 -0.8913489715562106 -0.8913489715562106 -0.8913489715562106 -0.9138639268451142 
-0.9138639268451142 -0.9138639268451142 -0.9138639268451142 -0.9327646667857146 -0.9327646667857146 -0.9327646667857146 -0.9327646667857146 -0.9479902577399281 -0.9479902577399281 
-0.9479902577399281 -0.9479902577399281 -0.9594840025717587 -0.9594840025717587 -0.9594840025717587 -0.9594840025717587 -0.9671972315172737 -0.9671972315172737 -0.9671972315172737 
-0.9671972315172737 -0.9710950305896714 -0.9710950305896714 -0.9710950305896714 -0.9710950305896714 -0.9711598572553936 -0.9711598572553936 -0.9711598572553936 -0.9711598572553936 
-0.9673912727809417 -0.9673912727809417 -0.9673912727809417 -0.9673912727809417 -0.9598043108055616 -0.9598043108055616 -0.9598043108055616 -0.9598043108055616 -0.948428887304095 