Title = Result/Post/Linear_Advection_2D/FVM/MLP_u1_Least_Square/Sine_Wave_2D/Quad100/
FileType = Solution
Variables = q
Zone T = Result/Post/Linear_Advection_2D/FVM/MLP_u1_Least_Square/Sine_Wave_2D/Quad100/
ZoneType = FETriangle
Nodes = 40000
Elements = 20000
DataPacking = Block
StrandID = 14
SolutionTime = 1.3
-0.7381884351691452 -0.7381884351691452 -0.7381884351691452 -0.7381884351691452 -0.7446962694291061 -0.7446962694291061 -0.7446962694291061 -0.7446962694291061 -0.7524393042084366 -0.7524393042084366 
-0.7524393042084366 -0.7524393042084366 -0.7582423093087646 -0.7582423093087646 -0.7582423093087646 -0.7582423093087646 -0.761306894431834 -0.761306894431834 -0.761306894431834 
-0.761306894431834 -0.7614270689872162 -0.7614270689872162 -0.7614270689872162 -0.7614270689872162 -0.7585564288404633 -0.7585564288404633 -0.7585564288404633 -0.7585564288404633 
-0.7526926931248854 -0.7526926931248854 -0.7526926931248854 -0.7526926931248854 -0.7438575852484935 -0.7438575852484935 -0.7438575852484935 -0.7438575852484935 -0.7320861777885096 
-0.7320861777885096 -0.7320861777885096 -0.7320861777885096 -0.7174252991571219 -0.7174252991571219 -0.7174252991571219 -0.7174252991571219 -0.6999329351460444 -0.6999329351460444 
-0.6999329351460444 -0.6999329351460444 -0.6796780524727328 -0.6796780524727328 -0.6796780524727328 -0.6796780524727328 -0.6567402837536085 -0.6567402837536085 -0.6567402837536085 
-0.6567402837536085 -0.6312097443391843 -0.6312097443391843 -0.6312097443391843 -0.6312097443391843 -0.6031870316592002 -0.6031870316592002 -0.6031870316592002 -0.6031870316592002 
-0.5727835714339005 -0.5727835714339005 -0.5727835714339005 -0.5727835714339005 -0.5401223785999898 -0.5401223785999898 -0.5401223785999898 -0.5401223785999898 -0.5053391887806589 
-0.5053391887806589 -0.5053391887806589 -0.5053391887806589 -0.4685836762064167 -0.4685836762064167 -0.4685836762064167 -0.4685836762064167 -0.4300201770675501 -0.4300201770675501 
-0.4300201770675501 -0.4300201770675501 -0.3898270779955727 -0.3898270779955727 -0.3898270779955727 -0.3898270779955727 -0.3481939600968014 -0.3481939600968014 -0.3481939600968014 
-0.3481939600968014 -0.3053158612429492 -0.3053158612429492 -0.3053158612429492 -0.3053158612429492 -0.2613847106417504 -0.2613847106417504 -0.2613847106417504 -0.2613847106417504 
-0.2165790238127261 -0.2165790238127261 -0.2165790238127261 -0.2165790238127261 -0.1710540521504922 -0.1710540521504922 -0.1710540521504922 -0.1710540521504922 -0.1249353401345561 
-0.1249353401345561 -0.1249353401345561 -0.1249353401345561 -0.07831862647668314 -0.07831862647668314 -0.07831862647668314 -0.07831862647668314 -0.03127798280247642 -0.03127798280247642 
-0.03127798280247642 -0.03127798280247642 0.01611790356011515 0.01611790356011515 0.01611790356011515 0.01611790356011515 0.06378386901232941 0.06378386901232941 0.06378386901232941 
0.06378386901232941 0.1115956215912519 0.1115956215912519 0.1115956215912519 0.1115956215912519 0.1593722491226378 0.1593722491226378 0.1593722491226378 0.1593722491226378 
0.2068693642224961 0.2068693642224961 0.2068693642224961 0.2068693642224961 0.2537861265598077 0.2537861265598077 0.2537861265598077 0.2537861265598077 0.2997858586536369 
0.2997858586536369 0.2997858586536369 0.2997858586536369 0.3445261522957545 0.3445261522957545 0.3445261522957545 0.3445261522957545 0.3876914699971881 0.3876914699971881 
0.3876914699971881 0.3876914699971881 0.4290202997194457 0.4290202997194457 0.4290202997194457 0.4290202997194457 0.4683203348948873 0.4683203348948873 0.4683203348948873 
0.4683203348948873 0.5054685328413391 0.5054685328413391 0.5054685328413391 0.5054685328413391 0.5403971673263837 0.5403971673263837 0.5403971673263837 0.5403971673263837 
0.5730707484105898 0.5730707484105898 0.5730707484105898 0.5730707484105898 0.6034607582772041 0.6034607582772041 0.6034607582772041 0.6034607582772041 0.6315249971543461 
0.6315249971543461 0.6315249971543461 0.6315249971543461 0.657196190008997 0.657196190008997 0.657196190008997 0.657196190008997 0.6803812552364592 0.6803812552364592 
0.6803812552364592 0.6803812552364592 0.7009694424864699 0.7009694424864699 0.7009694424864699 0.7009694424864699 0.7188454013886989 0.7188454013886989 0.7188454013886989 
0.7188454013886989 0.7339026567394238 0.7339026567394238 0.7339026567394238 0.7339026567394238 0.7460538491196604 0.7460538491196604 0.7460538491196604 0.7460538491196604 
0.7552357966970085 0.7552357966970085 0.7552357966970085 0.7552357966970085 0.7614093863844806 0.7614093863844806 0.7614093863844806 0.7614093863844806 0.7645551264567395 
0.7645551264567395 0.7645551264567395 0.7645551264567395 0.7646712617805143 0.7646712617805143 0.7646712617805143 0.7646712617805143 0.7617688419841895 0.7617688419841895 
0.7617688419841895 0.7617688419841895 0.7558630944501209 0.7558630944501209 0.7558630944501209 0.7558630944501209 0.7469804546066994 0.7469804546066994 0.7469804546066994 
0.7469804546066994 0.7351556815898524 0.7351556815898524 0.7351556815898524 0.7351556815898524 0.7204334031951418 0.7204334031951418 0.7204334031951418 0.7204334031951418 
0.7028692653154818 0.7028692653154818 0.7028692653154818 0.7028692653154818 0.6825307781842469 0.6825307781842469 0.6825307781842469 0.6825307781842469 0.6594973539295128 
0.6594973539295128 0.6594973539295128 0.6594973539295128 0.6338598786568312 0.6338598786568312 0.6338598786568312 0.6338598786568312 0.6057199792527144 0.6057199792527144 
0.6057199792527144 0.6057199792527144 0.5751892563902667 0.5751892563902667 0.5751892563902667 0.5751892563902667 0.5423886045747154 0.5423886045747154 0.5423886045747154 
0.5423886045747154 0.5074476570829713 0.5074476570829713 0.5074476570829713 0.5074476570829713 0.4705043144405128 0.4705043144405128 0.4705043144405128 0.4705043144405128 
0.4317042898894545 0.4317042898894545 0.4317042898894545 0.4317042898894545 0.3912006153079438 0.3912006153079438 0.3912006153079438 0.3912006153079438 0.3491530792363223 
0.3491530792363223 0.3491530792363223 0.3491530792363223 0.3057275978691328 0.3057275978691328 0.3057275978691328 0.3057275978691328 0.261095538373127 0.261095538373127 
0.261095538373127 0.261095538373127 0.2154330188777716 0.2154330188777716 0.2154330188777716 0.2154330188777716 0.1689202035591634 0.1689202035591634 0.1689202035591634 
0.1689202035591634 0.1217406005099595 0.1217406005099595 0.1217406005099595 0.1217406005099595 0.07408036024991405 0.07408036024991405 0.07408036024991405 0.07408036024991405 
0.02612756702038596 0.02612756702038596 0.02612756702038596 0.02612756702038596 -0.02192848612101533 -0.02192848612101533 -0.02192848612101533 -0.02192848612101533 -0.06989804470053929 
-0.06989804470053929 -0.06989804470053929 -0.06989804470053929 -0.1175916631799468 -0.1175916631799468 -0.1175916631799468 -0.1175916631799468 -0.1648209905868479 -0.1648209905868479 
-0.1648209905868479 -0.1648209905868479 -0.2113995557347017 -0.2113995557347017 -0.2113995557347017 -0.2113995557347017 -0.2571435322785763 -0.2571435322785763 -0.2571435322785763 
-0.2571435322785763 -0.3018724676159893 -0.3018724676159893 -0.3018724676159893 -0.3018724676159893 -0.3454099689539512 -0.3454099689539512 -0.3454099689539512 -0.3454099689539512 
-0.3875843572215572 -0.3875843572215572 -0.3875843572215572 -0.3875843572215572 -0.4282292918247006 -0.4282292918247006 -0.4282292918247006 -0.4282292918247006 -0.4671844235349352 
-0.4671844235349352 -0.4671844235349352 -0.4671844235349352 -0.5042959492160243 -0.5042959492160243 -0.5042959492160243 -0.5042959492160243 -0.539417427784939 -0.539417427784939 
-0.539417427784939 -0.539417427784939 -0.5724101447779795 -0.5724101447779795 -0.5724101447779795 -0.5724101447779795 -0.6031423658081613 -0.6031423658081613 -0.6031423658081613 
-0.6031423658081613 -0.6315055141579239 -0.6315055141579239 -0.6315055141579239 -0.6315055141579239 -0.6573058669400575 -0.6573058669400575 -0.6573058669400575 -0.6573058669400575 
-0.6809051345167308 -0.6809051345167308 -0.6809051345167308 -0.6809051345167308 -0.6997567068029877 -0.6997567068029877 -0.6997567068029877 -0.6997567068029877 -0.7261652040551252 
-0.7261652040551252 -0.7261652040551252 -0.7261652040551252 -0.7138359383908413 -0.7138359383908413 -0.7138359383908413 -0.7138359383908413 -0.7202068611781423 -0.7202068611781423 
-0.7202068611781423 -0.7202068611781423 -0.7276730859096087 -0.7276730859096087 -0.7276730859096087 -0.7276730859096087 -0.733263199866214 -0.733263199866214 -0.733263199866214 
-0.733263199866214 -0.7362129967965046 -0.7362129967965046 -0.7362129967965046 -0.7362129967965046 -0.7363237250519301 -0.7363237250519301 -0.7363237250519301 -0.7363237250519301 
-0.7335461111002443 -0.7335461111002443 -0.7335461111002443 -0.7335461111002443 -0.7278769496578115 -0.7278769496578115 -0.7278769496578115 -0.7278769496578115 -0.7193347069385135 
-0.7193347069385135 -0.7193347069385135 -0.7193347069385135 -0.7079525571692105 -0.7079525571692105 -0.7079525571692105 -0.7079525571692105 -0.6937755852937149 -0.6937755852937149 
-0.6937755852937149 -0.6937755852937149 -0.6768600225363596 -0.6768600225363596 -0.6768600225363596 -0.6768600225363596 -0.6572727740241697 -0.6572727740241697 -0.6572727740241697 
-0.6572727740241697 -0.6350910384585207 -0.6350910384585207 -0.6350910384585207 -0.6350910384585207 -0.6104020746234453 -0.6104020746234453 -0.6104020746234453 -0.6104020746234453 
-0.5833032099224555 -0.5833032099224555 -0.5833032099224555 -0.5833032099224555 -0.5539021992808045 -0.5539021992808045 -0.5539021992808045 -0.5539021992808045 -0.5223179854933293 
-0.5223179854933293 -0.5223179854933293 -0.5223179854933293 -0.488681806756563 -0.488681806756563 -0.488681806756563 -0.488681806756563 -0.4531383762364407 -0.4531383762364407 
-0.4531383762364407 -0.4531383762364407 -0.415846576506695 -0.415846576506695 -0.415846576506695 -0.415846576506695 -0.3769788620671584 -0.3769788620671584 -0.3769788620671584 
-0.3769788620671584 -0.3367184958986666 -0.3367184958986666 -0.3367184958986666 -0.3367184958986666 -0.2952540075650469 -0.2952540075650469 -0.2952540075650469 -0.2952540075650469 
-0.2527709263552702 -0.2527709263552702 -0.2527709263552702 -0.2527709263552702 -0.2094418394204662 -0.2094418394204662 -0.2094418394204662 -0.2094418394204662 -0.1654168906087974 
-0.1654168906087974 -0.1654168906087974 -0.1654168906087974 -0.1208175666984154 -0.1208175666984154 -0.1208175666984154 -0.1208175666984154 -0.07573660138379293 -0.07573660138379293 
-0.07573660138379293 -0.07573660138379293 -0.03024582281101104 -0.03024582281101104 -0.03024582281101104 -0.03024582281101104 0.01558814383826261 0.01558814383826261 0.01558814383826261 
0.01558814383826261 0.06168279025133058 0.06168279025133058 0.06168279025133058 0.06168279025133058 0.1079178676795425 0.1079178676795425 0.1079178676795425 0.1079178676795425 
0.154118497223463 0.154118497223463 0.154118497223463 0.154118497223463 0.2000485328222894 0.2000485328222894 0.2000485328222894 0.2000485328222894 0.2454173101700748 
0.2454173101700748 0.2454173101700748 0.2454173101700748 0.2898995183613393 0.2898995183613393 0.2898995183613393 0.2898995183613393 0.3331642458753309 0.3331642458753309 
0.3331642458753309 0.3331642458753309 0.374906456618411 0.374906456618411 0.374906456618411 0.374906456618411 0.4148732309940847 0.4148732309940847 0.4148732309940847 
0.4148732309940847 0.4528784632861489 0.4528784632861489 0.4528784632861489 0.4528784632861489 0.4888029645334453 0.4888029645334453 0.4888029645334453 0.4888029645334453 
0.5225810337568324 0.5225810337568324 0.5225810337568324 0.5225810337568324 0.5541781914930192 0.5541781914930192 0.5541781914930192 0.5541781914930192 0.5835667806195404 
0.5835667806195404 0.5835667806195404 0.5835667806195404 0.6107059980032703 0.6107059980032703 0.6107059980032703 0.6107059980032703 0.6355308569883087 0.6355308569883087 
0.6355308569883087 0.6355308569883087 0.6579514456420101 0.6579514456420101 0.6579514456420101 0.6579514456420101 0.6778607617257003 0.6778607617257003 0.6778607617257003 
0.6778607617257003 0.6951473299440154 0.6951473299440154 0.6951473299440154 0.6951473299440154 0.7097082300483015 0.7097082300483015 0.7097082300483015 0.7097082300483015 
0.721458988585852 0.721458988585852 0.721458988585852 0.721458988585852 0.7303384187622891 0.7303384187622891 0.7303384187622891 0.7303384187622891 0.736308416464151 
0.736308416464151 0.736308416464151 0.736308416464151 0.7393506975834466 0.7393506975834466 0.7393506975834466 0.7393506975834466 0.7394636043192981 0.7394636043192981 
0.7394636043192981 0.7394636043192981 0.7366564385042456 0.7366564385042456 0.7366564385042456 0.7366564385042456 0.7309456890749817 0.7309456890749817 0.7309456890749817 
0.7309456890749817 0.7223560590452258 0.7223560590452258 0.7223560590452258 0.7223560590452258 0.7109212277372652 0.7109212277372652 0.7109212277372652 0.7109212277372652 
0.6966843654428301 0.6966843654428301 0.6966843654428301 0.6966843654428301 0.679699340273568 0.679699340273568 0.679699340273568 0.679699340273568 0.6600314337220345 
0.6600314337220345 0.6600314337220345 0.6600314337220345 0.6377574358534033 0.6377574358534033 0.6377574358534033 0.6377574358534033 0.6129652285115471 0.6129652285115471 
0.6129652285115471 0.6129652285115471 0.5857530849973548 0.5857530849973548 0.5857530849973548 0.5857530849973548 0.5562289264715675 0.5562289264715675 0.5562289264715675 
0.5562289264715675 0.5245096627710347 0.5245096627710347 0.5245096627710347 0.5245096627710347 0.4907206546466126 0.4907206546466126 0.4907206546466126 0.4907206546466126 
0.4549952574393635 0.4549952574393635 0.4549952574393635 0.4549952574393635 0.417474381683109 0.417474381683109 0.417474381683109 0.417474381683109 0.3783060149722725 
0.3783060149722725 0.3783060149722725 0.3783060149722725 0.3376446776153237 0.3376446776153237 0.3376446776153237 0.3376446776153237 0.2956508134662327 0.2956508134662327 
0.2956508134662327 0.2956508134662327 0.252490135709854 0.252490135709854 0.252490135709854 0.252490135709854 0.2083329515357599 0.2083329515357599 0.2083329515357599 
0.2083329515357599 0.1633534826875389 0.1633534826875389 0.1633534826875389 0.1633534826875389 0.1177291878414533 0.1177291878414533 0.1177291878414533 0.1177291878414533 
0.07164008395444944 0.07164008395444944 0.07164008395444944 0.07164008395444944 0.02526805965120509 0.02526805965120509 0.02526805965120509 0.02526805965120509 -0.02120382665554377 
-0.02120382665554377 -0.02120382665554377 -0.02120382665554377 -0.06759206944771279 -0.06759206944771279 -0.06759206944771279 -0.06759206944771279 -0.113713461003051 -0.113713461003051 
-0.113713461003051 -0.113713461003051 -0.1593858525717025 -0.1593858525717025 -0.1593858525717025 -0.1593858525717025 -0.2044289168505368 -0.2044289168505368 -0.2044289168505368 
-0.2044289168505368 -0.2486648908778629 -0.2486648908778629 -0.2486648908778629 -0.2486648908778629 -0.2919192813732915 -0.2919192813732915 -0.2919192813732915 -0.2919192813732915 
-0.3340215250096542 -0.3340215250096542 -0.3340215250096542 -0.3340215250096542 -0.3748056151920947 -0.3748056151920947 -0.3748056151920947 -0.3748056151920947 -0.4141107017116095 
-0.4141107017116095 -0.4141107017116095 -0.4141107017116095 -0.4517817194289251 -0.4517817194289251 -0.4517817194289251 -0.4517817194289251 -0.4876699294513478 -0.4876699294513478 
-0.4876699294513478 -0.4876699294513478 -0.5216337053870383 -0.5216337053870383 -0.5216337053870383 -0.5216337053870383 -0.5535388939145274 -0.5535388939145274 -0.5535388939145274 
-0.5535388939145274 -0.5832581773242752 -0.5832581773242752 -0.5832581773242752 -0.5832581773242752 -0.6106859503211689 -0.6106859503211689 -0.6106859503211689 -0.6106859503211689 
-0.6356385355693669 -0.6356385355693669 -0.6356385355693669 -0.6356385355693669 -0.6584461541931909 -0.6584461541931909 -0.6584461541931909 -0.6584461541931909 -0.6767397613200733 
-0.6767397613200733 -0.6767397613200733 -0.6767397613200733 -0.7021132162142935 -0.7021132162142935 -0.7021132162142935 -0.7021132162142935 -0.6759458672985393 -0.6759458672985393 
-0.6759458672985393 -0.6759458672985393 -0.6819995011720442 -0.6819995011720442 -0.6819995011720442 -0.6819995011720442 -0.6890937235959875 -0.6890937235959875 -0.6890937235959875 
-0.6890937235959875 -0.6943911012167751 -0.6943911012167751 -0.6943911012167751 -0.6943911012167751 -0.6971792754733822 -0.6971792754733822 -0.6971792754733822 -0.6971792754733822 
-0.6972772084939485 -0.6972772084939485 -0.6972772084939485 -0.6972772084939485 -0.69464189843395 -0.69464189843395 -0.69464189843395 -0.69464189843395 -0.6892714349087881 
-0.6892714349087881 -0.6892714349087881 -0.6892714349087881 -0.6811825874345672 -0.6811825874345672 -0.6811825874345672 -0.6811825874345672 -0.6704054160290158 -0.6704054160290158 
-0.6704054160290158 -0.6704054160290158 -0.6569816801158908 -0.6569816801158908 -0.6569816801158908 -0.6569816801158908 -0.6409641660574742 -0.6409641660574742 -0.6409641660574742 
-0.6409641660574742 -0.6224161352689506 -0.6224161352689506 -0.6224161352689506 -0.6224161352689506 -0.6014108194850417 -0.6014108194850417 -0.6014108194850417 -0.6014108194850417 
-0.5780310493308431 -0.5780310493308431 -0.5780310493308431 -0.5780310493308431 -0.5523691743533314 -0.5523691743533314 -0.5523691743533314 -0.5523691743533314 -0.5245273603841266 
-0.5245273603841266 -0.5245273603841266 -0.5245273603841266 -0.4946183021807816 -0.4946183021807816 -0.4946183021807816 -0.4946183021807816 -0.4627662794747407 -0.4627662794747407 
-0.4627662794747407 -0.4627662794747407 -0.4291082862759211 -0.4291082862759211 -0.4291082862759211 -0.4291082862759211 -0.3937947021025928 -0.3937947021025928 -0.3937947021025928 
-0.3937947021025928 -0.3569887410509024 -0.3569887410509024 -0.3569887410509024 -0.3569887410509024 -0.3188638517416996 -0.3188638517416996 -0.3188638517416996 -0.3188638517416996 
-0.2795984881040076 -0.2795984881040076 -0.2795984881040076 -0.2795984881040076 -0.2393683001820942 -0.2393683001820942 -0.2393683001820942 -0.2393683001820942 -0.1983367358481528 
-0.1983367358481528 -0.1983367358481528 -0.1983367358481528 -0.1566460517706925 -0.1566460517706925 -0.1566460517706925 -0.1566460517706925 -0.1144114237075589 -0.1144114237075589 
-0.1144114237075589 -0.1144114237075589 -0.07172083279190469 -0.07172083279190469 -0.07172083279190469 -0.07172083279190469 -0.02864245829365073 -0.02864245829365073 -0.02864245829365073 
-0.02864245829365073 0.01476049863968621 0.01476049863968621 0.01476049863968621 0.01476049863968621 0.05840988685815308 0.05840988685815308 0.05840988685815308 0.05840988685815308 
0.1021919254041987 0.1021919254041987 0.1021919254041987 0.1021919254041987 0.1459411964666472 0.1459411964666472 0.1459411964666472 0.1459411964666472 0.1894343159833018 
0.1894343159833018 0.1894343159833018 0.1894343159833018 0.2323962606102589 0.2323962606102589 0.2323962606102589 0.2323962606102589 0.2745191218484563 0.2745191218484563 
0.2745191218484563 0.2745191218484563 0.315489569640847 0.315489569640847 0.315489569640847 0.315489569640847 0.3550186532302005 0.3550186532302005 0.3550186532302005 
0.3550186532302005 0.3928666824750094 0.3928666824750094 0.3928666824750094 0.3928666824750094 0.4288572038162326 0.4288572038162326 0.4288572038162326 0.4288572038162326 
0.4628771615197723 0.4628771615197723 0.4628771615197723 0.4628771615197723 0.494864229643092 0.494864229643092 0.494864229643092 0.494864229643092 0.52478574573852 
0.52478574573852 0.52478574573852 0.52478574573852 0.5526155930052978 0.5526155930052978 0.5526155930052978 0.5526155930052978 0.5783152545231458 0.5783152545231458 
0.5783152545231458 0.5783152545231458 0.6018233159746518 0.6018233159746518 0.6018233159746518 0.6018233159746518 0.6230547259292443 0.6230547259292443 0.6230547259292443 
0.6230547259292443 0.6419081984034745 0.6419081984034745 0.6419081984034745 0.6419081984034745 0.6582781666268156 0.6582781666268156 0.6582781666268156 0.6582781666268156 
0.6720671321306833 0.6720671321306833 0.6720671321306833 0.6720671321306833 0.6831950225758452 0.6831950225758452 0.6831950225758452 0.6831950225758452 0.6916037798103276 
0.6916037798103276 0.6916037798103276 0.6916037798103276 0.6972573159689552 0.6972573159689552 0.6972573159689552 0.6972573159689552 0.7001385935619201 0.7001385935619201 
0.7001385935619201 0.7001385935619201 0.7002457850818333 0.7002457850818333 0.7002457850818333 0.7002457850818333 0.6975875058621499 0.6975875058621499 0.6975875058621499 
0.6975875058621499 0.6921797374519887 0.6921797374519887 0.6921797374519887 0.6921797374519887 0.6840459370989942 0.6840459370989942 0.6840459370989942 0.6840459370989942 
0.6732177967126309 0.6732177967126309 0.6732177967126309 0.6732177967126309 0.6597361917082296 0.6597361917082296 0.6597361917082296 0.6597361917082296 0.6436521648213691 
0.6436521648213691 0.6436521648213691 0.6436521648213691 0.6250275448229737 0.6250275448229737 0.6250275448229737 0.6250275448229737 0.6039350497703643 0.6039350497703643 
0.6039350497703643 0.6039350497703643 0.5804578940035133 0.5804578940035133 0.5804578940035133 0.5804578940035133 0.5546891361046238 0.5546891361046238 0.5546891361046238 
0.5546891361046238 0.5267309731449656 0.5267309731449656 0.5267309731449656 0.5267309731449656 0.4966941152074523 0.4966941152074523 0.4966941152074523 0.4966941152074523 
0.4646972749665373 0.4646972749665373 0.4646972749665373 0.4646972749665373 0.4308667358729583 0.4308667358729583 0.4308667358729583 0.4308667358729583 0.3953359363782017 
0.3953359363782017 0.3953359363782017 0.3953359363782017 0.3582450160376787 0.3582450160376787 0.3582450160376787 0.3582450160376787 0.3197402977557269 0.3197402977557269 
0.3197402977557269 0.3197402977557269 0.2799737094989815 0.2799737094989815 0.2799737094989815 0.2799737094989815 0.2391021663519142 0.2391021663519142 0.2391021663519142 
0.2391021663519142 0.1972869353885926 0.1972869353885926 0.1972869353885926 0.1972869353885926 0.1546929964850426 0.1546929964850426 0.1546929964850426 0.1546929964850426 
0.1114884013630833 0.1114884013630833 0.1114884013630833 0.1114884013630833 0.06784362772051017 0.06784362772051017 0.06784362772051017 0.06784362772051017 0.02393092509545785 
0.02393092509545785 0.02393092509545785 0.02393092509545785 -0.0200763505952157 -0.0200763505952157 -0.0200763505952157 -0.0200763505952157 -0.06400441859928747 -0.06400441859928747 
-0.06400441859928747 -0.06400441859928747 -0.1076797760624225 -0.1076797760624225 -0.1076797760624225 -0.1076797760624225 -0.1509299208393571 -0.1509299208393571 -0.1509299208393571 
-0.1509299208393571 -0.1935840807689354 -0.1935840807689354 -0.1935840807689354 -0.1935840807689354 -0.2354739249901431 -0.2354739249901431 -0.2354739249901431 -0.2354739249901431 
-0.276434233978324 -0.276434233978324 -0.276434233978324 -0.276434233978324 -0.316303518517931 -0.316303518517931 -0.316303518517931 -0.316303518517931 -0.3549246018105723 
-0.3549246018105723 -0.3549246018105723 -0.3549246018105723 -0.3921451774728393 -0.3921451774728393 -0.3921451774728393 -0.3921451774728393 -0.4278184016201881 -0.4278184016201881 
-0.4278184016201881 -0.4278184016201881 -0.461803409828953 -0.461803409828953 -0.461803409828953 -0.461803409828953 -0.4939660681958241 -0.4939660681958241 -0.4939660681958241 
-0.4939660681958241 -0.5241793256176974 -0.5241793256176974 -0.5241793256176974 -0.5241793256176974 -0.5523226008623822 -0.5523226008623822 -0.5523226008623822 -0.5523226008623822 
-0.5782959146372637 -0.5782959146372637 -0.5782959146372637 -0.5782959146372637 -0.6019251722865793 -0.6019251722865793 -0.6019251722865793 -0.6019251722865793 -0.6235242894048608 
-0.6235242894048608 -0.6235242894048608 -0.6235242894048608 -0.6408419079187638 -0.6408419079187638 -0.6408419079187638 -0.6408419079187638 -0.664883247266151 -0.664883247266151 
-0.664883247266151 -0.664883247266151 -0.6329513005403841 -0.6329513005403841 -0.6329513005403841 -0.6329513005403841 -0.6386125075107333 -0.6386125075107333 -0.6386125075107333 
-0.6386125075107333 -0.6452624646740384 -0.6452624646740384 -0.6452624646740384 -0.6452624646740384 -0.650232946277715 -0.650232946277715 -0.650232946277715 -0.650232946277715 
-0.6528485750350299 -0.6528485750350299 -0.6528485750350299 -0.6528485750350299 -0.6529397875518108 -0.6529397875518108 -0.6529397875518108 -0.6529397875518108 -0.6504688871524589 
-0.6504688871524589 -0.6504688871524589 -0.6504688871524589 -0.6454368264532679 -0.6454368264532679 -0.6454368264532679 -0.6454368264532679 -0.6378606973313786 -0.6378606973313786 
-0.6378606973313786 -0.6378606973313786 -0.6277687853545419 -0.6277687853545419 -0.6277687853545419 -0.6277687853545419 -0.615199700216376 -0.615199700216376 -0.615199700216376 
-0.615199700216376 -0.600202210640291 -0.600202210640291 -0.600202210640291 -0.600202210640291 -0.5828350256729398 -0.5828350256729398 -0.5828350256729398 -0.5828350256729398 
-0.5631664224078259 -0.5631664224078259 -0.5631664224078259 -0.5631664224078259 -0.5412738938066456 -0.5412738938066456 -0.5412738938066456 -0.5412738938066456 -0.5172440064615498 
-0.5172440064615498 -0.5172440064615498 -0.5172440064615498 -0.4911725971970923 -0.4911725971970923 -0.4911725971970923 -0.4911725971970923 -0.4631653692504233 -0.4631653692504233 
-0.4631653692504233 -0.4631653692504233 -0.4333388300143104 -0.4333388300143104 -0.4333388300143104 -0.4333388300143104 -0.4018213216433693 -0.4018213216433693 -0.4018213216433693 
-0.4018213216433693 -0.3687536463443544 -0.3687536463443544 -0.3687536463443544 -0.3687536463443544 -0.3342885671591223 -0.3342885671591223 -0.3342885671591223 -0.3342885671591223 
-0.2985884031011852 -0.2985884031011852 -0.2985884031011852 -0.2985884031011852 -0.2618201674658418 -0.2618201674658418 -0.2618201674658418 -0.2618201674658418 -0.2241482875041953 
-0.2241482875041953 -0.2241482875041953 -0.2241482875041953 -0.1857258263098422 -0.1857258263098422 -0.1857258263098422 -0.1857258263098422 -0.1466860722232228 -0.1466860722232228 
-0.1466860722232228 -0.1466860722232228 -0.1071370107181604 -0.1071370107181604 -0.1071370107181604 -0.1071370107181604 -0.06716118515716799 -0.06716118515716799 -0.06716118515716799 
-0.06716118515716799 -0.02682257289839446 -0.02682257289839446 -0.02682257289839446 -0.02682257289839446 0.01381958151529253 0.01381958151529253 0.01381958151529253 0.01381958151529253 
0.05469213880978905 0.05469213880978905 0.05469213880978905 0.05469213880978905 0.09568870504119256 0.09568870504119256 0.09568870504119256 0.09568870504119256 0.13665461265465 
0.13665461265465 0.13665461265465 0.13665461265465 0.1773809345829147 0.1773809345829147 0.1773809345829147 0.1773809345829147 0.2176103373021419 0.2176103373021419 
0.2176103373021419 0.2176103373021419 0.2570545812662882 0.2570545812662882 0.2570545812662882 0.2570545812662882 0.2954202089373381 0.2954202089373381 0.2954202089373381 
0.2954202089373381 0.3324364649090371 0.3324364649090371 0.3324364649090371 0.3324364649090371 0.3678786490263962 0.3678786490263962 0.3678786490263962 0.3678786490263962 
0.4015812790414806 0.4015812790414806 0.4015812790414806 0.4015812790414806 0.4334383125199784 0.4334383125199784 0.4334383125199784 0.4334383125199784 0.4633913274084952 
0.4633913274084952 0.4633913274084952 0.4633913274084952 0.4914097984809618 0.4914097984809618 0.4914097984809618 0.4914097984809618 0.5174694157245918 0.5174694157245918 
0.5174694157245918 0.5174694157245918 0.541534287904006 0.541534287904006 0.541534287904006 0.541534287904006 0.5635470568401091 0.5635470568401091 0.5635470568401091 
0.5635470568401091 0.5834281673702453 0.5834281673702453 0.5834281673702453 0.5834281673702453 0.6010827898705022 0.6010827898705022 0.6010827898705022 0.6010827898705022 
0.6164120279468404 0.6164120279468404 0.6164120279468404 0.6164120279468404 0.6293245019970252 0.6293245019970252 0.6293245019970252 0.6293245019970252 0.6397451262620321 
0.6397451262620321 0.6397451262620321 0.6397451262620321 0.6476194477739727 0.6476194477739727 0.6476194477739727 0.6476194477739727 0.6529136946792286 0.6529136946792286 
0.6529136946792286 0.6529136946792286 0.6556120352710479 0.6556120352710479 0.6556120352710479 0.6556120352710479 0.6557126464933021 0.6557126464933021 0.6557126464933021 
0.6557126464933021 0.6532235045971506 0.6532235045971506 0.6532235045971506 0.6532235045971506 0.648159797011577 0.648159797011577 0.648159797011577 0.648159797011577 
0.6405435288787646 0.6405435288787646 0.6405435288787646 0.6405435288787646 0.63040428991273 0.63040428991273 0.63040428991273 0.63040428991273 0.6177803187182134 
0.6177803187182134 0.6177803187182134 0.6177803187182134 0.6027194085117311 0.6027194085117311 0.6027194085117311 0.6027194085117311 0.585279470908475 0.585279470908475 
0.585279470908475 0.585279470908475 0.565528602854853 0.565528602854853 0.565528602854853 0.565528602854853 0.543544724218073 0.543544724218073 0.543544724218073 
0.543544724218073 0.5194149723839434 0.5194149723839434 0.5194149723839434 0.5194149723839434 0.4932350428626465 0.4932350428626465 0.4932350428626465 0.4932350428626465 
0.4651086041102842 0.4651086041102842 0.4651086041102842 0.4651086041102842 0.4351468196299945 0.4351468196299945 0.4351468196299945 0.4351468196299945 0.4034679443144523 
0.4034679443144523 0.4034679443144523 0.4034679443144523 0.3701969339913629 0.3701969339913629 0.3701969339913629 0.3701969339913629 0.335465016647804 0.335465016647804 
0.335465016647804 0.335465016647804 0.2994092033448177 0.2994092033448177 0.2994092033448177 0.2994092033448177 0.2621717463595657 0.2621717463595657 0.2621717463595657 
0.2621717463595657 0.2238995665538389 0.2238995665538389 0.2238995665538389 0.2238995665538389 0.184743667928212 0.184743667928212 0.184743667928212 0.184743667928212 
0.1448585443691955 0.1448585443691955 0.1448585443691955 0.1448585443691955 0.1044015755276791 0.1044015755276791 0.1044015755276791 0.1044015755276791 0.06353241144468511 