Title = Result/Post/Linear_Advection_2D/FVM/MLP_u1_Least_Square/Sine_Wave_2D/Quad100/
FileType = Solution
Variables = q
Zone T = Result/Post/Linear_Advection_2D/FVM/MLP_u1_Least_Square/Sine_Wave_2D/Quad100/
ZoneType = FETriangle
Nodes = 40000
Elements = 20000
DataPacking = Block
StrandID = 18
SolutionTime = 1.7
0.775917597771733 0.775917597771733 0.775917597771733 0.775917597771733 0.7633442396566529 0.7633442396566529 0.7633442396566529 0.7633442396566529 0.7426713929764568 0.7426713929764568 
0.7426713929764568 0.7426713929764568 0.7179560208854207 0.7179560208854207 0.7179560208854207 0.7179560208854207 0.6901621501888112 0.6901621501888112 0.6901621501888112 
0.6901621501888112 0.6595907736961104 0.6595907736961104 0.6595907736961104 0.6595907736961104 0.6264035910044174 0.6264035910044174 0.6264035910044174 0.6264035910044174 
0.5907402812834819 0.5907402812834819 0.5907402812834819 0.5907402812834819 0.5527436987623854 0.5527436987623854 0.5527436987623854 0.5527436987623854 0.5125646563360073 
0.5125646563360073 0.5125646563360073 0.5125646563360073 0.4703622766830718 0.4703622766830718 0.4703622766830718 0.4703622766830718 0.4263034775165014 0.4263034775165014 
0.4263034775165014 0.4263034775165014 0.3805623503116811 0.3805623503116811 0.3805623503116811 0.3805623503116811 0.3333195321391794 0.3333195321391794 0.3333195321391794 
0.3333195321391794 0.2847615226184035 0.2847615226184035 0.2847615226184035 0.2847615226184035 0.2350799133560358 0.2350799133560358 0.2350799133560358 0.2350799133560358 
0.184470579314584 0.184470579314584 0.184470579314584 0.184470579314584 0.1331329345398927 0.1331329345398927 0.1331329345398927 0.1331329345398927 0.08126930287903321 
0.08126930287903321 0.08126930287903321 0.08126930287903321 0.02908432438816522 0.02908432438816522 0.02908432438816522 0.02908432438816522 -0.02321576447439177 -0.02321576447439177 
-0.02321576447439177 -0.02321576447439177 -0.07542407337268531 -0.07542407337268531 -0.07542407337268531 -0.07542407337268531 -0.1273341480116548 -0.1273341480116548 -0.1273341480116548 
-0.1273341480116548 -0.1787410089997801 -0.1787410089997801 -0.1787410089997801 -0.1787410089997801 -0.2294419814999791 -0.2294419814999791 -0.2294419814999791 -0.2294419814999791 
-0.279237321630798 -0.279237321630798 -0.279237321630798 -0.279237321630798 -0.3279307849534702 -0.3279307849534702 -0.3279307849534702 -0.3279307849534702 -0.3753302868392024 
-0.3753302868392024 -0.3753302868392024 -0.3753302868392024 -0.4212486950260206 -0.4212486950260206 -0.4212486950260206 -0.4212486950260206 -0.4655046812149891 -0.4655046812149891 
-0.4655046812149891 -0.4655046812149891 -0.5079235278046141 -0.5079235278046141 -0.5079235278046141 -0.5079235278046141 -0.5483378360082505 -0.5483378360082505 -0.5483378360082505 
-0.5483378360082505 -0.5865881495444468 -0.5865881495444468 -0.5865881495444468 -0.5865881495444468 -0.6225235388390227 -0.6225235388390227 -0.6225235388390227 -0.6225235388390227 
-0.6560021768511717 -0.6560021768511717 -0.6560021768511717 -0.6560021768511717 -0.6868919073364209 -0.6868919073364209 -0.6868919073364209 -0.6868919073364209 -0.7150707867449344 
-0.7150707867449344 -0.7150707867449344 -0.7150707867449344 -0.7404275810344614 -0.7404275810344614 -0.7404275810344614 -0.7404275810344614 -0.7628622087171767 -0.7628622087171767 
-0.7628622087171767 -0.7628622087171767 -0.7822861313914644 -0.7822861313914644 -0.7822861313914644 -0.7822861313914644 -0.7986227100241222 -0.7986227100241222 -0.7986227100241222 
-0.7986227100241222 -0.8118075142910876 -0.8118075142910876 -0.8118075142910876 -0.8118075142910876 -0.8217885985898358 -0.8217885985898358 -0.8217885985898358 -0.8217885985898358 
-0.8285265654165725 -0.8285265654165725 -0.8285265654165725 -0.8285265654165725 -0.8319938922549582 -0.8319938922549582 -0.8319938922549582 -0.8319938922549582 -0.8321774836619774 
-0.8321774836619774 -0.8321774836619774 -0.8321774836619774 -0.8290787107113877 -0.8290787107113877 -0.8290787107113877 -0.8290787107113877 -0.8227071669768945 -0.8227071669768945 
-0.8227071669768945 -0.8227071669768945 -0.8130885801150305 -0.8130885801150305 -0.8130885801150305 -0.8130885801150305 -0.8002610319913459 -0.8002610319913459 -0.8002610319913459 
-0.8002610319913459 -0.7842751499278912 -0.7842751499278912 -0.7842751499278912 -0.7842751499278912 -0.7651937846800717 -0.7651937846800717 -0.7651937846800717 -0.7651937846800717 
-0.7430919184187472 -0.7430919184187472 -0.7430919184187472 -0.7430919184187472 -0.7180564528954905 -0.7180564528954905 -0.7180564528954905 -0.7180564528954905 -0.6901861694468987 
-0.6901861694468987 -0.6901861694468987 -0.6901861694468987 -0.6595918688488795 -0.6595918688488795 -0.6595918688488795 -0.6595918688488795 -0.6263967845281165 -0.6263967845281165 
-0.6263967845281165 -0.6263967845281165 -0.5907372248543439 -0.5907372248543439 -0.5907372248543439 -0.5907372248543439 -0.5527632817181318 -0.5527632817181318 -0.5527632817181318 
-0.5527632817181318 -0.5126392666313387 -0.5126392666313387 -0.5126392666313387 -0.5126392666313387 -0.4705433832693784 -0.4705433832693784 -0.4705433832693784 -0.4705433832693784 
-0.4266660751453116 -0.4266660751453116 -0.4266660751453116 -0.4266660751453116 -0.3812065755127195 -0.3812065755127195 -0.3812065755127195 -0.3812065755127195 -0.3343674861579155 
-0.3343674861579155 -0.3343674861579155 -0.3343674861579155 -0.286347718276454 -0.286347718276454 -0.286347718276454 -0.286347718276454 -0.2373347593522488 -0.2373347593522488 
-0.2373347593522488 -0.2373347593522488 -0.1874978206183941 -0.1874978206183941 -0.1874978206183941 -0.1874978206183941 -0.1369837569476577 -0.1369837569476577 -0.1369837569476577 
-0.1369837569476577 -0.08591753418315284 -0.08591753418315284 -0.08591753418315284 -0.08591753418315284 -0.03440833822789833 -0.03440833822789833 -0.03440833822789833 -0.03440833822789833 
0.01743877586023428 0.01743877586023428 0.01743877586023428 0.01743877586023428 0.06950727429003757 0.06950727429003757 0.06950727429003757 0.06950727429003757 0.1216525291489033 
0.1216525291489033 0.1216525291489033 0.1216525291489033 0.1736879871140179 0.1736879871140179 0.1736879871140179 0.1736879871140179 0.225377854872848 0.225377854872848 
0.225377854872848 0.225377854872848 0.2764389504132128 0.2764389504132128 0.2764389504132128 0.2764389504132128 0.326552425883984 0.326552425883984 0.326552425883984 
0.326552425883984 0.3753837191457519 0.3753837191457519 0.3753837191457519 0.3753837191457519 0.4226069690074086 0.4226069690074086 0.4226069690074086 0.4226069690074086 
0.4679288561288495 0.4679288561288495 0.4679288561288495 0.4679288561288495 0.5111068204017235 0.5111068204017235 0.5111068204017235 0.5111068204017235 0.5519579126671218 
0.5519579126671218 0.5519579126671218 0.5519579126671218 0.5903568277987035 0.5903568277987035 0.5903568277987035 0.5903568277987035 0.626224302166417 0.626224302166417 
0.626224302166417 0.626224302166417 0.6595093021282675 0.6595093021282675 0.6595093021282675 0.6595093021282675 0.6901696703750401 0.6901696703750401 0.6901696703750401 
0.6901696703750401 0.7181558397434444 0.7181558397434444 0.7181558397434444 0.7181558397434444 0.7434009690090179 0.7434009690090179 0.7434009690090179 0.7434009690090179 
0.7658188703332276 0.7658188703332276 0.7658188703332276 0.7658188703332276 0.7853089296169817 0.7853089296169817 0.7853089296169817 0.7853089296169817 0.8017658335327511 
0.8017658335327511 0.8017658335327511 0.8017658335327511 0.8150902175800249 0.8150902175800249 0.8150902175800249 0.8150902175800249 0.825200301040478 0.825200301040478 
0.825200301040478 0.825200301040478 0.8320303717972433 0.8320303717972433 0.8320303717972433 0.8320303717972433 0.8355628492134923 0.8355628492134923 0.8355628492134923 
0.8355628492134923 0.8357078396125598 0.8357078396125598 0.8357078396125598 0.8357078396125598 0.8327788512300893 0.8327788512300893 0.8327788512300893 0.8327788512300893 
0.8256089274478668 0.8256089274478668 0.8256089274478668 0.8256089274478668 0.8188068799651839 0.8188068799651839 0.8188068799651839 0.8188068799651839 0.7950131049046628 
0.7950131049046628 0.7950131049046628 0.7950131049046628 0.7941415670292914 0.7941415670292914 0.7941415670292914 0.7941415670292914 0.7813138645856235 0.7813138645856235 
0.7813138645856235 0.7813138645856235 0.760190225636582 0.760190225636582 0.760190225636582 0.760190225636582 0.7348943518795954 0.7348943518795954 0.7348943518795954 
0.7348943518795954 0.7064398254505733 0.7064398254505733 0.7064398254505733 0.7064398254505733 0.675141856213068 0.675141856213068 0.675141856213068 0.675141856213068 
0.6411683122055252 0.6411683122055252 0.6411683122055252 0.6411683122055252 0.6046623994942143 0.6046623994942143 0.6046623994942143 0.6046623994942143 0.5657698108977096 
0.5657698108977096 0.5657698108977096 0.5657698108977096 0.5246442432673517 0.5246442432673517 0.5246442432673517 0.5246442432673517 0.4814480228637892 0.4814480228637892 
0.4814480228637892 0.4814480228637892 0.4363516534358266 0.4363516534358266 0.4363516534358266 0.4363516534358266 0.3895331604313719 0.3895331604313719 0.3895331604313719 
0.3895331604313719 0.3411773936611224 0.3411773936611224 0.3411773936611224 0.3411773936611224 0.2914752725869522 0.2914752725869522 0.2914752725869522 0.2914752725869522 
0.2406229554409106 0.2406229554409106 0.2406229554409106 0.2406229554409106 0.1888209855755302 0.1888209855755302 0.1888209855755302 0.1888209855755302 0.1362735168146328 
0.1362735168146328 0.1362735168146328 0.1362735168146328 0.08318766513642703 0.08318766513642703 0.08318766513642703 0.08318766513642703 0.02977290204463657 0.02977290204463657 
0.02977290204463657 0.02977290204463657 -0.02375967818239632 -0.02375967818239632 -0.02375967818239632 -0.02375967818239632 -0.07719831769513723 -0.07719831769513723 -0.07719831769513723 
-0.07719831769513723 -0.1303317053543462 -0.1303317053543462 -0.1303317053543462 -0.1303317053543462 -0.1829500366171747 -0.1829500366171747 -0.1829500366171747 -0.1829500366171747 
-0.2348458618949936 -0.2348458618949936 -0.2348458618949936 -0.2348458618949936 -0.2858147289030853 -0.2858147289030853 -0.2858147289030853 -0.2858147289030853 -0.3356557663525513 
-0.3356557663525513 -0.3356557663525513 -0.3356557663525513 -0.3841723610878887 -0.3841723610878887 -0.3841723610878887 -0.3841723610878887 -0.431172969574095 -0.431172969574095 
-0.431172969574095 -0.431172969574095 -0.4764719892723432 -0.4764719892723432 -0.4764719892723432 -0.4764719892723432 -0.5198905841457373 -0.5198905841457373 -0.5198905841457373 
-0.5198905841457373 -0.5612574095371186 -0.5612574095371186 -0.5612574095371186 -0.5612574095371186 -0.6004092508105666 -0.6004092508105666 -0.6004092508105666 -0.6004092508105666 
-0.6371916214846185 -0.6371916214846185 -0.6371916214846185 -0.6371916214846185 -0.6714593525575825 -0.6714593525575825 -0.6714593525575825 -0.6714593525575825 -0.7030771739293198 
-0.7030771739293198 -0.7030771739293198 -0.7030771739293198 -0.7319202686243984 -0.7319202686243984 -0.7319202686243984 -0.7319202686243984 -0.7578747808281276 -0.7578747808281276 
-0.7578747808281276 -0.7578747808281276 -0.780838269515624 -0.780838269515624 -0.780838269515624 -0.780838269515624 -0.8007201112674283 -0.8007201112674283 -0.8007201112674283 
-0.8007201112674283 -0.8174418689531175 -0.8174418689531175 -0.8174418689531175 -0.8174418689531175 -0.8309376023309861 -0.8309376023309861 -0.8309376023309861 -0.8309376023309861 
-0.8411540955337485 -0.8411540955337485 -0.8411540955337485 -0.8411540955337485 -0.8480508555898025 -0.8480508555898025 -0.8480508555898025 -0.8480508555898025 -0.8516002578859694 
-0.8516002578859694 -0.8516002578859694 -0.8516002578859694 -0.8517888735188854 -0.8517888735188854 -0.8517888735188854 -0.8517888735188854 -0.8486165416670782 -0.8486165416670782 
-0.8486165416670782 -0.8486165416670782 -0.8420951916802359 -0.8420951916802359 -0.8420951916802359 -0.8420951916802359 -0.8322501998542597 -0.8322501998542597 -0.8322501998542597 
-0.8322501998542597 -0.8191205956508869 -0.8191205956508869 -0.8191205956508869 -0.8191205956508869 -0.8027581815559266 -0.8027581815559266 -0.8027581815559266 -0.8027581815559266 
-0.7832273375821652 -0.7832273375821652 -0.7832273375821652 -0.7832273375821652 -0.7606048124242437 -0.7606048124242437 -0.7606048124242437 -0.7606048124242437 -0.734979557982298 
-0.734979557982298 -0.734979557982298 -0.734979557982298 -0.7064526806901543 -0.7064526806901543 -0.7064526806901543 -0.7064526806901543 -0.6751375903592731 -0.6751375903592731 
-0.6751375903592731 -0.6751375903592731 -0.6411604195498755 -0.6411604195498755 -0.6411604195498755 -0.6411604195498755 -0.6046606789156048 -0.6046606789156048 -0.6046606789156048 
-0.6046606789156048 -0.5657919818778152 -0.5657919818778152 -0.5657919818778152 -0.5657919818778152 -0.5247224925033699 -0.5247224925033699 -0.5247224925033699 -0.5247224925033699 
-0.4816345945907444 -0.4816345945907444 -0.4816345945907444 -0.4816345945907444 -0.4367232069157918 -0.4367232069157918 -0.4367232069157918 -0.4367232069157918 -0.3901922596464374 
-0.3901922596464374 -0.3901922596464374 -0.3901922596464374 -0.3422491523375517 -0.3422491523375517 -0.3422491523375517 -0.3422491523375517 -0.2930975317657973 -0.2930975317657973 
-0.2930975317657973 -0.2930975317657973 -0.2429293734681597 -0.2429293734681597 -0.2429293734681597 -0.2429293734681597 -0.1919179566205308 -0.1919179566205308 -0.1919179566205308 
-0.1919179566205308 -0.1402136693576161 -0.1402136693576161 -0.1402136693576161 -0.1402136693576161 -0.08794446485061844 -0.08794446485061844 -0.08794446485061844 -0.08794446485061844 
-0.03522209415630198 -0.03522209415630198 -0.03522209415630198 -0.03522209415630198 0.01784598140802806 0.01784598140802806 0.01784598140802806 0.01784598140802806 0.0711406094003318 
0.0711406094003318 0.0711406094003318 0.0711406094003318 0.1245139189779616 0.1245139189779616 0.1245139189779616 0.1245139189779616 0.1777751291871191 0.1777751291871191 
0.1777751291871191 0.1777751291871191 0.2306830211182069 0.2306830211182069 0.2306830211182069 0.2306830211182069 0.2829477964463321 0.2829477964463321 0.2829477964463321 
0.2829477964463321 0.3342430556733618 0.3342430556733618 0.3342430556733618 0.3342430556733618 0.3842262219575208 0.3842262219575208 0.3842262219575208 0.3842262219575208 
0.4325635580345406 0.4325635580345406 0.4325635580345406 0.4325635580345406 0.4789546135783072 0.4789546135783072 0.4789546135783072 0.4789546135783072 0.5231509231885513 
0.5231509231885513 0.5231509231885513 0.5231509231885513 0.5649651106734439 0.5649651106734439 0.5649651106734439 0.5649651106734439 0.6042689003175215 0.6042689003175215 
0.6042689003175215 0.6042689003175215 0.6409812396090189 0.6409812396090189 0.6409812396090189 0.6409812396090189 0.6750500420499376 0.6750500420499376 0.6750500420499376 
0.6750500420499376 0.7064323352171049 0.7064323352171049 0.7064323352171049 0.7064323352171049 0.7350775447913742 0.7350775447913742 0.7350775447913742 0.7350775447913742 
0.7609173609735413 0.7609173609735413 0.7609173609735413 0.7609173609735413 0.7838635992618332 0.7838635992618332 0.7838635992618332 0.7838635992618332 0.8038132421721305 
0.8038132421721305 0.8038132421721305 0.8038132421721305 0.8206584229711738 0.8206584229711738 0.8206584229711738 0.8206584229711738 0.8342973368384905 0.8342973368384905 
0.8342973368384905 0.8342973368384905 0.8446461693384746 0.8446461693384746 0.8446461693384746 0.8446461693384746 0.8516373166212281 0.8516373166212281 0.8516373166212281 
0.8516373166212281 0.8552537734766524 0.8552537734766524 0.8552537734766524 0.8552537734766524 0.8554017141922327 0.8554017141922327 0.8554017141922327 0.8554017141922327 
0.852407174594733 0.852407174594733 0.852407174594733 0.852407174594733 0.8450546550899762 0.8450546550899762 0.8450546550899762 0.8450546550899762 0.8381314927596037 
0.8381314927596037 0.8381314927596037 0.8381314927596037 0.8137480014591605 0.8137480014591605 0.8137480014591605 0.8137480014591605 0.8190683196482407 0.8190683196482407 
0.8190683196482407 0.8190683196482407 0.8057903797623928 0.8057903797623928 0.8057903797623928 0.8057903797623928 0.7840118827442677 0.7840118827442677 0.7840118827442677 
0.7840118827442677 0.7579386596947961 0.7579386596947961 0.7579386596947961 0.7579386596947961 0.7286009780751614 0.7286009780751614 0.7286009780751614 0.7286009780751614 
0.696324368250295 0.696324368250295 0.696324368250295 0.696324368250295 0.6612844941758669 0.6612844941758669 0.6612844941758669 0.6612844941758669 0.6236314262731364 
0.6236314262731364 0.6236314262731364 0.6236314262731364 0.5835169297431961 0.5835169297431961 0.5835169297431961 0.5835169297431961 0.5411001854959779 0.5411001854959779 
0.5411001854959779 0.5411001854959779 0.4965487001549187 0.4965487001549187 0.4965487001549187 0.4965487001549187 0.4500381237740901 0.4500381237740901 0.4500381237740901 
0.4500381237740901 0.4017517839861509 0.4017517839861509 0.4017517839861509 0.4017517839861509 0.3518800864800398 0.3518800864800398 0.3518800864800398 0.3518800864800398 
0.3006197821916436 0.3006197821916436 0.3006197821916436 0.3006197821916436 0.2481731093389068 0.2481731093389068 0.2481731093389068 0.2481731093389068 0.1947468900948716 
0.1947468900948716 0.1947468900948716 0.1947468900948716 0.1405517037324784 0.1405517037324784 0.1405517037324784 0.1405517037324784 0.0858011943097033 0.0858011943097033 
0.0858011943097033 0.0858011943097033 0.03071142956775729 0.03071142956775729 0.03071142956775729 0.03071142956775729 -0.02449986132582502 -0.02449986132582502 -0.02449986132582502 
-0.02449986132582502 -0.0796142762753667 -0.0796142762753667 -0.0796142762753667 -0.0796142762753667 -0.1344138805206358 -0.1344138805206358 -0.1344138805206358 -0.1344138805206358 
-0.1886822945560133 -0.1886822945560133 -0.1886822945560133 -0.1886822945560133 -0.2422055660263254 -0.2422055660263254 -0.2422055660263254 -0.2422055660263254 -0.2947728317297275 
-0.2947728317297275 -0.2947728317297275 -0.2947728317297275 -0.3461769205332926 -0.3461769205332926 -0.3461769205332926 -0.3461769205332926 -0.3962150526419657 -0.3962150526419657 
-0.3962150526419657 -0.3962150526419657 -0.4446896767725614 -0.4446896767725614 -0.4446896767725614 -0.4446896767725614 -0.4914093687001928 -0.4914093687001928 -0.4914093687001928 
-0.4914093687001928 -0.5361896826414499 -0.5361896826414499 -0.5361896826414499 -0.5361896826414499 -0.57885389920286 -0.57885389920286 -0.57885389920286 -0.57885389920286 
-0.6192336845050697 -0.6192336845050697 -0.6192336845050697 -0.6192336845050697 -0.6571697072841665 -0.6571697072841665 -0.6571697072841665 -0.6571697072841665 -0.6925122465225654 
-0.6925122465225654 -0.6925122465225654 -0.6925122465225654 -0.7251217906615972 -0.7251217906615972 -0.7251217906615972 -0.7251217906615972 -0.7548696087024784 -0.7548696087024784 
-0.7548696087024784 -0.7548696087024784 -0.781638274118762 -0.781638274118762 -0.781638274118762 -0.781638274118762 -0.805322134145624 -0.805322134145624 -0.805322134145624 
-0.805322134145624 -0.8258277280181736 -0.8258277280181736 -0.8258277280181736 -0.8258277280181736 -0.8430741616814912 -0.8430741616814912 -0.8430741616814912 -0.8430741616814912 
-0.8569934114265598 -0.8569934114265598 -0.8569934114265598 -0.8569934114265598 -0.8675305337772834 -0.8675305337772834 -0.8675305337772834 -0.8675305337772834 -0.8746437855977881 
-0.8746437855977881 -0.8746437855977881 -0.8746437855977881 -0.8783049229631966 -0.8783049229631966 -0.8783049229631966 -0.8783049229631966 -0.8784998713415111 -0.8784998713415111 
-0.8784998713415111 -0.8784998713415111 -0.8752282063154888 -0.8752282063154888 -0.8752282063154888 -0.8752282063154888 -0.8685025540929532 -0.8685025540929532 -0.8685025540929532 
-0.8685025540929532 -0.8583492252627548 -0.8583492252627548 -0.8583492252627548 -0.8583492252627548 -0.8448082587288128 -0.8448082587288128 -0.8448082587288128 -0.8448082587288128 
-0.8279330583804667 -0.8279330583804667 -0.8279330583804667 -0.8279330583804667 -0.8077900481274579 -0.8077900481274579 -0.8077900481274579 -0.8077900481274579 -0.7844583973684471 
-0.7844583973684471 -0.7844583973684471 -0.7844583973684471 -0.7580298575922055 -0.7580298575922055 -0.7580298575922055 -0.7580298575922055 -0.7286087079649356 -0.7286087079649356 
-0.7286087079649356 -0.7286087079649356 -0.6963119162686066 -0.6963119162686066 -0.6963119162686066 -0.6963119162686066 -0.661269568289258 -0.661269568289258 -0.661269568289258 
-0.661269568289258 -0.6236255415012734 -0.6236255415012734 -0.6236255415012734 -0.6236255415012734 -0.5835382500173496 -0.5835382500173496 -0.5835382500173496 -0.5835382500173496 
-0.5411811064521748 -0.5411811064521748 -0.5411811064521748 -0.5411811064521748 -0.4967421837129367 -0.4967421837129367 -0.4967421837129367 -0.4967421837129367 -0.450422483923399 
-0.450422483923399 -0.450422483923399 -0.450422483923399 -0.4024323137505327 -0.4024323137505327 -0.4024323137505327 -0.4024323137505327 -0.3529855789987604 -0.3529855789987604 
-0.3529855789987604 -0.3529855789987604 -0.3022923442585733 -0.3022923442585733 -0.3022923442585733 -0.3022923442585733 -0.2505506686327579 -0.2505506686327579 -0.2505506686327579 
-0.2505506686327579 -0.197939353984273 -0.197939353984273 -0.197939353984273 -0.197939353984273 -0.1446136025463414 -0.1446136025463414 -0.1446136025463414 -0.1446136025463414 
-0.09070546339916541 -0.09070546339916541 -0.09070546339916541 -0.09070546339916541 -0.03633023452160594 -0.03633023452160594 -0.03633023452160594 -0.03633023452160594 0.01840127226000578 
0.01840127226000578 0.01840127226000578 0.01840127226000578 0.07336625729389092 0.07336625729389092 0.07336625729389092 0.07336625729389092 0.1284123618574664 0.1284123618574664 
0.1284123618574664 0.1284123618574664 0.183343003134482 0.183343003134482 0.183343003134482 0.183343003134482 0.2379095693143437 0.2379095693143437 0.2379095693143437 
0.2379095693143437 0.2918132930278681 0.2918132930278681 0.2918132930278681 0.2918132930278681 0.3447175717279706 0.3447175717279706 0.3447175717279706 0.3447175717279706 
0.3962690188814094 0.3962690188814094 0.3962690188814094 0.3962690188814094 0.4461232777891221 0.4461232777891221 0.4461232777891221 0.4461232777891221 0.4939702712435035 
0.4939702712435035 0.4939702712435035 0.4939702712435035 0.539553535473133 0.539553535473133 0.539553535473133 0.539553535473133 0.5826796597713439 0.5826796597713439 
0.5826796597713439 0.5826796597713439 0.6232162715516076 0.6232162715516076 0.6232162715516076 0.6232162715516076 0.6610797992888817 0.6610797992888817 0.6610797992888817 
0.6610797992888817 0.6962166294022978 0.6962166294022978 0.6962166294022978 0.6962166294022978 0.7285825975106579 0.7285825975106579 0.7285825975106579 0.7285825975106579 
0.7581257041710462 0.7581257041710462 0.7581257041710462 0.7581257041710462 0.7847756230869827 0.7847756230869827 0.7847756230869827 0.7847756230869827 0.8084414700950761 
0.8084414700950761 0.8084414700950761 0.8084414700950761 0.829016999454861 0.829016999454861 0.829016999454861 0.829016999454861 0.8463909079062479 0.8463909079062479 
0.8463909079062479 0.8463909079062479 0.860458095457888 0.860458095457888 0.860458095457888 0.860458095457888 0.8711319737564628 0.8711319737564628 0.8711319737564628 
0.8711319737564628 0.8783427667642473 0.8783427667642473 0.8783427667642473 0.8783427667642473 0.8820731758823827 0.8820731758823827 0.8820731758823827 0.8820731758823827 
0.8822261766606696 0.8822261766606696 0.8822261766606696 0.8822261766606696 0.8791376406272351 0.8791376406272351 0.8791376406272351 0.8791376406272351 0.8715561922550537 
0.8715561922550537 0.8715561922550537 0.8715561922550537 0.8644074712799253 0.8644074712799253 0.8644074712799253 0.8644074712799253 0.8392715355044644 0.8392715355044644 
0.8392715355044644 0.8392715355044644 0.8431141923383448 0.8431141923383448 0.8431141923383448 0.8431141923383448 0.8294289342470622 0.8294289342470622 0.8294289342470622 
0.8294289342470622 0.8069962765041494 0.8069962765041494 0.8069962765041494 0.8069962765041494 0.7801573041910205 0.7801573041910205 0.7801573041910205 0.7801573041910205 
0.7499649123755046 0.7499649123755046 0.7499649123755046 0.7499649123755046 0.7167481869450346 0.7167481869450346 0.7167481869450346 0.7167481869450346 0.6806852619191002 
0.6806852619191002 0.6806852619191002 0.6806852619191002 0.6419300450567615 0.6419300450567615 0.6419300450567615 0.6419300450567615 0.6006392997600536 0.6006392997600536 
0.6006392997600536 0.6006392997600536 0.55697774702291 0.55697774702291 0.55697774702291 0.55697774702291 0.5111185530223756 0.5111185530223756 0.5111185530223756 
0.5111185530223756 0.4632429747397007 0.4632429747397007 0.4632429747397007 0.4632429747397007 0.4135398918592952 0.4135398918592952 0.4135398918592952 0.4135398918592952 
0.362205279993719 0.362205279993719 0.362205279993719 0.362205279993719 0.3094415568603798 0.3094415568603798 0.3094415568603798 0.3094415568603798 0.2554567748534732 
0.2554567748534732 0.2554567748534732 0.2554567748534732 0.200463732720316 0.200463732720316 0.200463732720316 0.200463732720316 0.1446791368527562 0.1446791368527562 
0.1446791368527562 0.1446791368527562 0.08832288262693719 0.08832288262693719 0.08832288262693719 0.08832288262693719 0.03161738072235606 0.03161738072235606 0.03161738072235606 
0.03161738072235606 -0.02521324097802559 -0.02521324097802559 -0.02521324097802559 -0.02521324097802559 -0.08194416374823707 -0.08194416374823707 -0.08194416374823707 -0.08194416374823707 
-0.1383510551884692 -0.1383510551884692 -0.1383510551884692 -0.1383510551884692 -0.1942111886807982 -0.1942111886807982 -0.1942111886807982 -0.1942111886807982 -0.2493043389073841 
-0.2493043389073841 -0.2493043389073841 -0.2493043389073841 -0.3034134613416314 -0.3034134613416314 -0.3034134613416314 -0.3034134613416314 -0.3563253115042222 -0.3563253115042222 
-0.3563253115042222 -0.3563253115042222 -0.4078311639308377 -0.4078311639308377 -0.4078311639308377 -0.4078311639308377 -0.457727673513918 -0.457727673513918 -0.457727673513918 
-0.457727673513918 -0.5058178004694756 -0.5058178004694756 -0.5058178004694756 -0.5058178004694756 -0.5519116872087075 -0.5519116872087075 -0.5519116872087075 -0.5519116872087075 
-0.5958274289804951 -0.5958274289804951 -0.5958274289804951 -0.5958274289804951 -0.6373917529627144 -0.6373917529627144 -0.6373917529627144 -0.6373917529627144 -0.6764406536921366 
-0.6764406536921366 -0.6764406536921366 -0.6764406536921366 -0.7128200183711149 -0.7128200183711149 -0.7128200183711149 -0.7128200183711149 -0.7463862433589404 -0.7463862433589404 
-0.7463862433589404 -0.7463862433589404 -0.7770068218805061 -0.7770068218805061 -0.7770068218805061 -0.7770068218805061 -0.804560883698251 -0.804560883698251 -0.804560883698251 
-0.804560883698251 -0.828939679208364 -0.828939679208364 -0.828939679208364 -0.828939679208364 -0.8500470094850098 -0.8500470094850098 -0.8500470094850098 -0.8500470094850098 
-0.8677996027621526 -0.8677996027621526 -0.8677996027621526 -0.8677996027621526 -0.8821274183726145 -0.8821274183726145 -0.8821274183726145 -0.8821274183726145 -0.8929738710017912 
-0.8929738710017912 -0.8929738710017912 -0.8929738710017912 -0.9002960288511308 -0.9002960288511308 -0.9002960288511308 -0.9002960288511308 -0.9040649401793024 -0.9040649401793024 
-0.9040649401793024 -0.9040649401793024 -0.9042659877596084 -0.9042659877596084 -0.9042659877596084 -0.9042659877596084 -0.9008985918835362 -0.9008985918835362 -0.9008985918835362 
-0.9008985918835362 -0.893975953628158 -0.893975953628158 -0.893975953628158 -0.893975953628158 -0.8835252048863002 -0.8835252048863002 -0.8835252048863002 -0.8835252048863002 
-0.8695874762299649 -0.8695874762299649 -0.8695874762299649 -0.8695874762299649 -0.8522176920991679 -0.8522176920991679 -0.8522176920991679 -0.8522176920991679 -0.8314842152217683 
-0.8314842152217683 -0.8314842152217683 -0.8314842152217683 -0.8074685565255498 -0.8074685565255498 -0.8074685565255498 -0.8074685565255498 -0.7802651733342365 -0.7802651733342365 
-0.7802651733342365 -0.7802651733342365 -0.7499814132666588 -0.7499814132666588 -0.7499814132666588 -0.7499814132666588 -0.7167376805298599 -0.7167376805298599 -0.7167376805298599 
-0.7167376805298599 -0.6806678772776613 -0.6806678772776613 -0.6806678772776613 -0.6806678772776613 -0.6419200954938997 -0.6419200954938997 -0.6419200954938997 -0.6419200954938997 
-0.6006573810737085 -0.6006573810737085 -0.6006573810737085 -0.6006573810737085 -0.5570582083260724 -0.5570582083260724 -0.5570582083260724 -0.5570582083260724 -0.5113161335855736 
-0.5113161335855736 -0.5113161335855736 -0.5113161335855736 -0.4636380188048993 -0.4636380188048993 -0.4636380188048993 -0.4636380188048993 -0.4142403095194999 -0.4142403095194999 
-0.4142403095194999 -0.4142403095194999 -0.3633431731718893 -0.3633431731718893 -0.3633431731718893 -0.3633431731718893 -0.3111628508908066 -0.3111628508908066 -0.3111628508908066 
-0.3111628508908066 -0.257903259652791 -0.257903259652791 -0.257903259652791 -0.257903259652791 -0.2037485256995114 -0.2037485256995114 -0.2037485256995114 -0.2037485256995114 
-0.1488585026366374 -0.1488585026366374 -0.1488585026366374 -0.1488585026366374 -0.09336920970217305 -0.09336920970217305 -0.09336920970217305 -0.09336920970217305 -0.03739939534169787 
-0.03739939534169787 -0.03739939534169787 -0.03739939534169787 0.01893686236657422 0.01893686236657422 0.01893686236657422 0.01893686236657422 0.07551321295064492 0.07551321295064492 
0.07551321295064492 0.07551321295064492 0.1321729452324591 0.1321729452324591 0.1321729452324591 0.1321729452324591 0.1887138721909289 0.1887138721909289 0.1887138721909289 
0.1887138721909289 0.2448802621391595 0.2448802621391595 0.2448802621391595 0.2448802621391595 0.3003647254930397 0.3003647254930397 0.3003647254930397 0.3003647254930397 