Title = Result/Post/Linear_Advection_2D/FVM/MLP_u1_Least_Square/Sine_Wave_2D/Quad100/
FileType = Solution
Variables = q
Zone T = Result/Post/Linear_Advection_2D/FVM/MLP_u1_Least_Square/Sine_Wave_2D/Quad100/
ZoneType = FETriangle
Nodes = 40000
Elements = 20000
DataPacking = Block
StrandID = 11
SolutionTime = 1
-0.003058066099613411 -0.003058066099613411 -0.003058066099613411 -0.003058066099613411 -0.005635619489775961 -0.005635619489775961 -0.005635619489775961 -0.005635619489775961 -0.009232706120891125 -0.009232706120891125 
-0.009232706120891125 -0.009232706120891125 -0.01302035711642875 -0.01302035711642875 -0.01302035711642875 -0.01302035711642875 -0.0168148318656882 -0.0168148318656882 -0.0168148318656882 
-0.0168148318656882 -0.02056197698193792 -0.02056197698193792 -0.02056197698193792 -0.02056197698193792 -0.02422782237142571 -0.02422782237142571 -0.02422782237142571 -0.02422782237142571 
-0.02778498325006831 -0.02778498325006831 -0.02778498325006831 -0.02778498325006831 -0.03121276309841516 -0.03121276309841516 -0.03121276309841516 -0.03121276309841516 -0.03449593525028255 
-0.03449593525028255 -0.03449593525028255 -0.03449593525028255 -0.0376240544016857 -0.0376240544016857 -0.0376240544016857 -0.0376240544016857 -0.04059028070335742 -0.04059028070335742 
-0.04059028070335742 -0.04059028070335742 -0.0433895872695631 -0.0433895872695631 -0.0433895872695631 -0.0433895872695631 -0.04601700646491004 -0.04601700646491004 -0.04601700646491004 
-0.04601700646491004 -0.04846631882460321 -0.04846631882460321 -0.04846631882460321 -0.04846631882460321 -0.05072966684142886 -0.05072966684142886 -0.05072966684142886 -0.05072966684142886 
-0.05279794546054035 -0.05279794546054035 -0.05279794546054035 -0.05279794546054035 -0.05466161581541025 -0.05466161581541025 -0.05466161581541025 -0.05466161581541025 -0.05631156834281087 
-0.05631156834281087 -0.05631156834281087 -0.05631156834281087 -0.05773974563670911 -0.05773974563670911 -0.05773974563670911 -0.05773974563670911 -0.05893956288484317 -0.05893956288484317 
-0.05893956288484317 -0.05893956288484317 -0.05990593884263255 -0.05990593884263255 -0.05990593884263255 -0.05990593884263255 -0.06063509376175761 -0.06063509376175761 -0.06063509376175761 
-0.06063509376175761 -0.06112345706741447 -0.06112345706741447 -0.06112345706741447 -0.06112345706741447 -0.06136974809220404 -0.06136974809220404 -0.06136974809220404 -0.06136974809220404 
-0.06137469505423129 -0.06137469505423129 -0.06137469505423129 -0.06137469505423129 -0.0611392028515458 -0.0611392028515458 -0.0611392028515458 -0.0611392028515458 -0.06066289956000043 
-0.06066289956000043 -0.06066289956000043 -0.06066289956000043 -0.05994653000393883 -0.05994653000393883 -0.05994653000393883 -0.05994653000393883 -0.05899321677902559 -0.05899321677902559 
-0.05899321677902559 -0.05899321677902559 -0.05780709937044845 -0.05780709937044845 -0.05780709937044845 -0.05780709937044845 -0.05639295456635921 -0.05639295456635921 -0.05639295456635921 
-0.05639295456635921 -0.05475632930037355 -0.05475632930037355 -0.05475632930037355 -0.05475632930037355 -0.05290364334921456 -0.05290364334921456 -0.05290364334921456 -0.05290364334921456 
-0.05084218692158003 -0.05084218692158003 -0.05084218692158003 -0.05084218692158003 -0.0485801300330528 -0.0485801300330528 -0.0485801300330528 -0.0485801300330528 -0.04612643409237464 
-0.04612643409237464 -0.04612643409237464 -0.04612643409237464 -0.04349081919379531 -0.04349081919379531 -0.04349081919379531 -0.04349081919379531 -0.0406837520848758 -0.0406837520848758 
-0.0406837520848758 -0.0406837520848758 -0.03771643183042214 -0.03771643183042214 -0.03771643183042214 -0.03771643183042214 -0.03460067707839116 -0.03460067707839116 -0.03460067707839116 
-0.03460067707839116 -0.03134990571557458 -0.03134990571557458 -0.03134990571557458 -0.03134990571557458 -0.02797276419903104 -0.02797276419903104 -0.02797276419903104 -0.02797276419903104 
-0.02449859935432229 -0.02449859935432229 -0.02449859935432229 -0.02449859935432229 -0.02105421194857077 -0.02105421194857077 -0.02105421194857077 -0.02105421194857077 -0.01744389275030941 
-0.01744389275030941 -0.01744389275030941 -0.01744389275030941 -0.01338948659894123 -0.01338948659894123 -0.01338948659894123 -0.01338948659894123 -0.009690362815146856 -0.009690362815146856 
-0.009690362815146856 -0.009690362815146856 -0.00519408309922665 -0.00519408309922665 -0.00519408309922665 -0.00519408309922665 -0.0009543023467328642 -0.0009543023467328642 -0.0009543023467328642 
-0.0009543023467328642 0.002206497488228458 0.002206497488228458 0.002206497488228458 0.002206497488228458 0.005055380482358046 0.005055380482358046 0.005055380482358046 0.005055380482358046 
0.008491012681772391 0.008491012681772391 0.008491012681772391 0.008491012681772391 0.01267244022982303 0.01267244022982303 0.01267244022982303 0.01267244022982303 0.01690668777594668 
0.01690668777594668 0.01690668777594668 0.01690668777594668 0.02077798555931324 0.02077798555931324 0.02077798555931324 0.02077798555931324 0.02436722191065325 0.02436722191065325 
0.02436722191065325 0.02436722191065325 0.02780489261890299 0.02780489261890299 0.02780489261890299 0.02780489261890299 0.03117090916355831 0.03117090916355831 0.03117090916355831 
0.03117090916355831 0.0344348765723471 0.0344348765723471 0.0344348765723471 0.0344348765723471 0.03756297936261044 0.03756297936261044 0.03756297936261044 0.03756297936261044 
0.04053993508199943 0.04053993508199943 0.04053993508199943 0.04053993508199943 0.04335525871379409 0.04335525871379409 0.04335525871379409 0.04335525871379409 0.04599987394970143 
0.04599987394970143 0.04599987394970143 0.04599987394970143 0.04846303116839865 0.04846303116839865 0.04846303116839865 0.04846303116839865 0.05073495071310269 0.05073495071310269 
0.05073495071310269 0.05073495071310269 0.05280668067883432 0.05280668067883432 0.05280668067883432 0.05280668067883432 0.05467004643639845 0.05467004643639845 0.05467004643639845 
0.05467004643639845 0.05631769075985123 0.05631769075985123 0.05631769075985123 0.05631769075985123 0.05774306045968073 0.05774306045968073 0.05774306045968073 0.05774306045968073 
0.05894053516131359 0.05894053516131359 0.05894053516131359 0.05894053516131359 0.05990545225038888 0.05990545225038888 0.05990545225038888 0.05990545225038888 0.06063400950144558 
0.06063400950144558 0.06063400950144558 0.06063400950144558 0.06112237893416386 0.06112237893416386 0.06112237893416386 0.06112237893416386 0.06136897655951352 0.06136897655951352 
0.06136897655951352 0.06136897655951352 0.06137428879308079 0.06137428879308079 0.06137428879308079 0.06137428879308079 0.06113909635308682 0.06113909635308682 0.06113909635308682 
0.06113909635308682 0.06066296963721502 0.06066296963721502 0.06066296963721502 0.06066296963721502 0.0599466599587988 0.0599466599587988 0.0599466599587988 0.0599466599587988 
0.05899333073926364 0.05899333073926364 0.05899333073926364 0.05899333073926364 0.05780717623809085 0.05780717623809085 0.05780717623809085 0.05780717623809085 0.05639302572798156 
0.05639302572798156 0.05639302572798156 0.05639302572798156 0.05475645937788357 0.05475645937788357 0.05475645937788357 0.05475645937788357 0.05290388291957702 0.05290388291957702 
0.05290388291957702 0.05290388291957702 0.05084248698551905 0.05084248698551905 0.05084248698551905 0.05084248698551905 0.04858022826725081 0.04858022826725081 0.04858022826725081 
0.04858022826725081 0.04612576459051743 0.04612576459051743 0.04612576459051743 0.04612576459051743 0.04348855120959239 0.04348855120959239 0.04348855120959239 0.04348855120959239 
0.04067910386394337 0.04067910386394337 0.04067910386394337 0.04067910386394337 0.03770937430160155 0.03770937430160155 0.03770937430160155 0.03770937430160155 0.03459318376638981 
0.03459318376638981 0.03459318376638981 0.03459318376638981 0.03134652390427015 0.03134652390427015 0.03134652390427015 0.03134652390427015 0.02798747869124758 0.02798747869124758 
0.02798747869124758 0.02798747869124758 0.02451471732708484 0.02451471732708484 0.02451471732708484 0.02451471732708484 0.02126516149369039 0.02126516149369039 0.02126516149369039 
0.02126516149369039 0.01726799564773095 0.01726799564773095 0.01726799564773095 0.01726799564773095 0.01367676551772946 0.01367676551772946 0.01367676551772946 0.01367676551772946 
0.00991196366611641 0.00991196366611641 0.00991196366611641 0.00991196366611641 0.007229007875379287 0.007229007875379287 0.007229007875379287 0.007229007875379287 0.0002941393333116814 
0.0002941393333116814 0.0002941393333116814 0.0002941393333116814 -0.005312765817289377 -0.005312765817289377 -0.005312765817289377 -0.005312765817289377 -0.008978551465655142 -0.008978551465655142 
-0.008978551465655142 -0.008978551465655142 -0.01470549940884824 -0.01470549940884824 -0.01470549940884824 -0.01470549940884824 -0.0208917620150882 -0.0208917620150882 -0.0208917620150882 
-0.0208917620150882 -0.02712027063681111 -0.02712027063681111 -0.02712027063681111 -0.02712027063681111 -0.03326054401505546 -0.03326054401505546 -0.03326054401505546 -0.03326054401505546 
-0.03925026665198734 -0.03925026665198734 -0.03925026665198734 -0.03925026665198734 -0.04504799559476924 -0.04504799559476924 -0.04504799559476924 -0.04504799559476924 -0.05062314018323517 
-0.05062314018323517 -0.05062314018323517 -0.05062314018323517 -0.05595360883280869 -0.05595360883280869 -0.05595360883280869 -0.05595360883280869 -0.06102508279477489 -0.06102508279477489 
-0.06102508279477489 -0.06102508279477489 -0.06582915743580732 -0.06582915743580732 -0.06582915743580732 -0.06582915743580732 -0.07036045310500792 -0.07036045310500792 -0.07036045310500792 
-0.07036045310500792 -0.0746133735048829 -0.0746133735048829 -0.0746133735048829 -0.0746133735048829 -0.07857968329832067 -0.07857968329832067 -0.07857968329832067 -0.07857968329832067 
-0.08224759058947881 -0.08224759058947881 -0.08224759058947881 -0.08224759058947881 -0.08560230003271418 -0.08560230003271418 -0.08560230003271418 -0.08560230003271418 -0.08862753235032805 
-0.08862753235032805 -0.08862753235032805 -0.08862753235032805 -0.09130732219646548 -0.09130732219646548 -0.09130732219646548 -0.09130732219646548 -0.09362750984983682 -0.09362750984983682 
-0.09362750984983682 -0.09362750984983682 -0.09557665087051803 -0.09557665087051803 -0.09557665087051803 -0.09557665087051803 -0.0971462620471103 -0.0971462620471103 -0.0971462620471103 
-0.0971462620471103 -0.09833044358034709 -0.09833044358034709 -0.09833044358034709 -0.09833044358034709 -0.09912473095212765 -0.09912473095212765 -0.09912473095212765 -0.09912473095212765 
-0.0995266883533881 -0.0995266883533881 -0.0995266883533881 -0.0995266883533881 -0.09953616379001895 -0.09953616379001895 -0.09953616379001895 -0.09953616379001895 -0.09915387535882882 
-0.09915387535882882 -0.09915387535882882 -0.09915387535882882 -0.098380926904812 -0.098380926904812 -0.098380926904812 -0.098380926904812 -0.09721972660673525 -0.09721972660673525 
-0.09721972660673525 -0.09721972660673525 -0.09567471349010903 -0.09567471349010903 -0.09567471349010903 -0.09567471349010903 -0.09375212062078123 -0.09375212062078123 -0.09375212062078123 
-0.09375212062078123 -0.09145955131194533 -0.09145955131194533 -0.09145955131194533 -0.09145955131194533 -0.08880603475248147 -0.08880603475248147 -0.08880603475248147 -0.08880603475248147 
-0.0858020289610332 -0.0858020289610332 -0.0858020289610332 -0.0858020289610332 -0.08245939653036957 -0.08245939653036957 -0.08245939653036957 -0.08245939653036957 -0.07879135096709745 
-0.07879135096709745 -0.07879135096709745 -0.07879135096709745 -0.07481238416043076 -0.07481238416043076 -0.07481238416043076 -0.07481238416043076 -0.07053821212933267 -0.07053821212933267 
-0.07053821212933267 -0.07053821212933267 -0.06598571918476365 -0.06598571918476365 -0.06598571918476365 -0.06598571918476365 -0.06117291708708953 -0.06117291708708953 -0.06117291708708953 
-0.06117291708708953 -0.056118754765056 -0.056118754765056 -0.056118754765056 -0.056118754765056 -0.05084392168686303 -0.05084392168686303 -0.05084392168686303 -0.05084392168686303 
-0.04536582040788738 -0.04536582040788738 -0.04536582040788738 -0.04536582040788738 -0.0397222252022373 -0.0397222252022373 -0.0397222252022373 -0.0397222252022373 -0.03391055821443134 
-0.03391055821443134 -0.03391055821443134 -0.03391055821443134 -0.02797396574162568 -0.02797396574162568 -0.02797396574162568 -0.02797396574162568 -0.0220207575866115 -0.0220207575866115 
-0.0220207575866115 -0.0220207575866115 -0.01570468688471639 -0.01570468688471639 -0.01570468688471639 -0.01570468688471639 -0.008851409321217455 -0.008851409321217455 -0.008851409321217455 
-0.008851409321217455 -0.002258058317167319 -0.002258058317167319 -0.002258058317167319 -0.002258058317167319 0.003436606261146513 0.003436606261146513 0.003436606261146513 0.003436606261146513 
0.008713603760218014 0.008713603760218014 0.008713603760218014 0.008713603760218014 0.01457013843483073 0.01457013843483073 0.01457013843483073 0.01457013843483073 0.02104159616219828 
0.02104159616219828 0.02104159616219828 0.02104159616219828 0.02750515679149907 0.02750515679149907 0.02750515679149907 0.02750515679149907 0.03364384289539554 0.03364384289539554 
0.03364384289539554 0.03364384289539554 0.03944647310269153 0.03944647310269153 0.03944647310269153 0.03944647310269153 0.04505956781525798 0.04505956781525798 0.04505956781525798 
0.04505956781525798 0.0505330904062937 0.0505330904062937 0.0505330904062937 0.0505330904062937 0.05582413105859879 0.05582413105859879 0.05582413105859879 0.05582413105859879 
0.0608960136193757 0.0608960136193757 0.0608960136193757 0.0608960136193757 0.0657237300290268 0.0657237300290268 0.0657237300290268 0.0657237300290268 0.07029096891362108 
0.07029096891362108 0.07029096891362108 0.07029096891362108 0.0745811139703049 0.0745811139703049 0.0745811139703049 0.0745811139703049 0.07857697714261344 0.07857697714261344 
0.07857697714261344 0.07857697714261344 0.08226276922947036 0.08226276922947036 0.08226276922947036 0.08226276922947036 0.08562393276300928 0.08562393276300928 0.08562393276300928 
0.08562393276300928 0.08864722871725669 0.08864722871725669 0.08864722871725669 0.08864722871725669 0.09132070797142486 0.09132070797142486 0.09132070797142486 0.09132070797142486 
0.09363378158662217 0.09363378158662217 0.09363378158662217 0.09363378158662217 0.09557733782914987 0.09557733782914987 0.09557733782914987 0.09557733782914987 0.09714380503799108 
0.09714380503799108 0.09714380503799108 0.09714380503799108 0.09832708661069059 0.09832708661069059 0.09832708661069059 0.09832708661069059 0.09912194194811366 0.09912194194811366 
0.09912194194811366 0.09912194194811366 0.09952506133897265 0.09952506133897265 0.09952506133897265 0.09952506133897265 0.09953563693327058 0.09953563693327058 0.09953563693327058 
0.09953563693327058 0.09915406134767259 0.09915406134767259 0.09915406134767259 0.09915406134767259 0.0983813938003901 0.0983813938003901 0.0983813938003901 0.0983813938003901 
0.09722016127710723 0.09722016127710723 0.09722016127710723 0.09722016127710723 0.09567497301527801 0.09567497301527801 0.09567497301527801 0.09567497301527801 0.0937522108933618 
0.0937522108933618 0.0937522108933618 0.0937522108933618 0.09145957439251895 0.09145957439251895 0.09145957439251895 0.09145957439251895 0.08880612711484387 0.08880612711484387 
0.08880612711484387 0.08880612711484387 0.08580228525627062 0.08580228525627062 0.08580228525627062 0.08580228525627062 0.08245976083359693 0.08245976083359693 0.08245976083359693 
0.08245976083359693 0.07879147737517893 0.07879147737517893 0.07879147737517893 0.07879147737517893 0.07481152594659393 0.07481152594659393 0.07481152594659393 0.07481152594659393 
0.07053527966656564 0.07053527966656564 0.07053527966656564 0.07053527966656564 0.06597971745675651 0.06597971745675651 0.06597971745675651 0.06597971745675651 0.06116394489953592 
0.06116394489953592 0.06116394489953592 0.06116394489953592 0.056109792180306 0.056109792180306 0.056109792180306 0.056109792180306 0.05084215159625034 0.05084215159625034 
0.05084215159625034 0.05084215159625034 0.04538912511646678 0.04538912511646678 0.04538912511646678 0.04538912511646678 0.03977903828133879 0.03977903828133879 0.03977903828133879 
0.03977903828133879 0.03407469353816227 0.03407469353816227 0.03407469353816227 0.03407469353816227 0.02819731800323072 0.02819731800323072 0.02819731800323072 0.02819731800323072 
0.02232246303690252 0.02232246303690252 0.02232246303690252 0.02232246303690252 0.01608008579438259 0.01608008579438259 0.01608008579438259 0.01608008579438259 0.01108681507252783 
0.01108681507252783 0.01108681507252783 0.01108681507252783 0.0008843618456493519 0.0008843618456493519 0.0008843618456493519 0.0008843618456493519 -0.008291097308514532 -0.008291097308514532 
-0.008291097308514532 -0.008291097308514532 -0.01419210303975335 -0.01419210303975335 -0.01419210303975335 -0.01419210303975335 -0.02302100013752304 -0.02302100013752304 -0.02302100013752304 
-0.02302100013752304 -0.03258811295558381 -0.03258811295558381 -0.03258811295558381 -0.03258811295558381 -0.04228558970968468 -0.04228558970968468 -0.04228558970968468 -0.04228558970968468 
-0.0518923215063556 -0.0518923215063556 -0.0518923215063556 -0.0518923215063556 -0.06128798175066062 -0.06128798175066062 -0.06128798175066062 -0.06128798175066062 -0.07038958799377859 
-0.07038958799377859 -0.07038958799377859 -0.07038958799377859 -0.07913751812973767 -0.07913751812973767 -0.07913751812973767 -0.07913751812973767 -0.08749213514838669 -0.08749213514838669 
-0.08749213514838669 -0.08749213514838669 -0.09543061364242623 -0.09543061364242623 -0.09543061364242623 -0.09543061364242623 -0.102942172643091 -0.102942172643091 -0.102942172643091 
-0.102942172643091 -0.1100218866197425 -0.1100218866197425 -0.1100218866197425 -0.1100218866197425 -0.1166644425427739 -0.1166644425427739 -0.1166644425427739 -0.1166644425427739 
-0.1228596687787323 -0.1228596687787323 -0.1228596687787323 -0.1228596687787323 -0.1285907257475917 -0.1285907257475917 -0.1285907257475917 -0.1285907257475917 -0.1338349300076112 
-0.1338349300076112 -0.1338349300076112 -0.1338349300076112 -0.1385663669871552 -0.1385663669871552 -0.1385663669871552 -0.1385663669871552 -0.1427591196592989 -0.1427591196592989 
-0.1427591196592989 -0.1427591196592989 -0.1463900481286996 -0.1463900481286996 -0.1463900481286996 -0.1463900481286996 -0.1494405020314643 -0.1494405020314643 -0.1494405020314643 
-0.1494405020314643 -0.1518967896194752 -0.1518967896194752 -0.1518967896194752 -0.1518967896194752 -0.153749563692872 -0.153749563692872 -0.153749563692872 -0.153749563692872 
-0.1549926556355917 -0.1549926556355917 -0.1549926556355917 -0.1549926556355917 -0.1556226492761549 -0.1556226492761549 -0.1556226492761549 -0.1556226492761549 -0.1556386504656054 
-0.1556386504656054 -0.1556386504656054 -0.1556386504656054 -0.15504152476469 -0.15504152476469 -0.15504152476469 -0.15504152476469 -0.1538335125718484 -0.1538335125718484 
-0.1538335125718484 -0.1538335125718484 -0.1520188318839642 -0.1520188318839642 -0.1520188318839642 -0.1520188318839642 -0.1496042857537981 -0.1496042857537981 -0.1496042857537981 
-0.1496042857537981 -0.1465992557388341 -0.1465992557388341 -0.1465992557388341 -0.1465992557388341 -0.1430155658414403 -0.1430155658414403 -0.1430155658414403 -0.1430155658414403 
-0.1388673654542434 -0.1388673654542434 -0.1388673654542434 -0.1388673654542434 -0.1341710483454142 -0.1341710483454142 -0.1341710483454142 -0.1341710483454142 -0.128945187359827 
-0.128945187359827 -0.128945187359827 -0.128945187359827 -0.1232104399978695 -0.1232104399978695 -0.1232104399978695 -0.1232104399978695 -0.1169894550487264 -0.1169894550487264 
-0.1169894550487264 -0.1169894550487264 -0.1103067831335046 -0.1103067831335046 -0.1103067831335046 -0.1103067831335046 -0.1031887894496185 -0.1031887894496185 -0.1031887894496185 
-0.1031887894496185 -0.09566357154053574 -0.09566357154053574 -0.09566357154053574 -0.09566357154053574 -0.08776074951343461 -0.08776074951343461 -0.08776074951343461 -0.08776074951343461 
-0.07951201602107102 -0.07951201602107102 -0.07951201602107102 -0.07951201602107102 -0.0709469697275012 -0.0709469697275012 -0.0709469697275012 -0.0709469697275012 -0.06210956017004896 
-0.06210956017004896 -0.06210956017004896 -0.06210956017004896 -0.05300510243697847 -0.05300510243697847 -0.05300510243697847 -0.05300510243697847 -0.04370676018642342 -0.04370676018642342 
-0.04370676018642342 -0.04370676018642342 -0.03432518702068316 -0.03432518702068316 -0.03432518702068316 -0.03432518702068316 -0.0246452925699294 -0.0246452925699294 -0.0246452925699294 
-0.0246452925699294 -0.01453312305659675 -0.01453312305659675 -0.01453312305659675 -0.01453312305659675 -0.004477005856067564 -0.004477005856067564 -0.004477005856067564 -0.004477005856067564 
0.004990757289845058 0.004990757289845058 0.004990757289845058 0.004990757289845058 0.01417328187181202 0.01417328187181202 0.01417328187181202 0.01417328187181202 0.02364838650500472 
0.02364838650500472 0.02364838650500472 0.02364838650500472 0.03341110315296568 0.03341110315296568 0.03341110315296568 0.03341110315296568 0.0431346333056669 0.0431346333056669 
0.0431346333056669 0.0431346333056669 0.05253669410053337 0.05253669410053337 0.05253669410053337 0.05253669410053337 0.0616057800249807 0.0616057800249807 0.0616057800249807 
0.0616057800249807 0.07043002735689573 0.07043002735689573 0.07043002735689573 0.07043002735689573 0.0790015938041664 0.0790015938041664 0.0790015938041664 0.0790015938041664 
0.08727458073938034 0.08727458073938034 0.08727458073938034 0.08727458073938034 0.0952025501507511 0.0952025501507511 0.0952025501507511 0.0952025501507511 0.1027513082555912 
0.1027513082555912 0.1027513082555912 0.1027513082555912 0.1098941150887092 0.1098941150887092 0.1098941150887092 0.1098941150887092 0.116603350257023 0.116603350257023 
0.116603350257023 0.116603350257023 0.1228524710463503 0.1228524710463503 0.1228524710463503 0.1228524710463503 0.1286167631804624 0.1286167631804624 0.1286167631804624 
0.1286167631804624 0.1338734890327963 0.1338734890327963 0.1338734890327963 0.1338734890327963 0.1386019291029242 0.1386019291029242 0.1386019291029242 0.1386019291029242 
0.1427833957298055 0.1427833957298055 0.1427833957298055 0.1427833957298055 0.1464013620398945 0.1464013620398945 0.1464013620398945 0.1464013620398945 0.1494415709748215 
0.1494415709748215 0.1494415709748215 0.1494415709748215 0.1518921079636447 0.1518921079636447 0.1518921079636447 0.1518921079636447 0.1537433126599788 0.1537433126599788 
0.1537433126599788 0.1537433126599788 0.1549875683899802 0.1549875683899802 0.1549875683899802 0.1549875683899802 0.1556198035202797 0.1556198035202797 0.1556198035202797 
0.1556198035202797 0.1556378780586925 0.1556378780586925 0.1556378780586925 0.1556378780586925 0.1550420460366272 0.1550420460366272 0.1550420460366272 0.1550420460366272 
0.1538344856240441 0.1538344856240441 0.1538344856240441 0.1538344856240441 0.1520196701531286 0.1520196701531286 0.1520196701531286 0.1520196701531286 0.149604744839098 
0.149604744839098 0.149604744839098 0.149604744839098 0.1465993705352548 0.1465993705352548 0.1465993705352548 0.1465993705352548 0.143015530770388 0.143015530770388 
0.143015530770388 0.143015530770388 0.1388674132469154 0.1388674132469154 0.1388674132469154 0.1388674132469154 0.1341713305075624 0.1341713305075624 0.1341713305075624 
0.1341713305075624 0.128945629726701 0.128945629726701 0.128945629726701 0.128945629726701 0.1232105668970058 0.1232105668970058 0.1232105668970058 0.1232105668970058 
0.1169882551769076 0.1169882551769076 0.1169882551769076 0.1169882551769076 0.1103028085304993 0.1103028085304993 0.1103028085304993 0.1103028085304993 0.1031807868843813 
0.1031807868843813 0.1031807868843813 0.1031807868843813 0.09565192827585353 0.09565192827585353 0.09565192827585353 0.09565192827585353 0.08775002654571093 0.08775002654571093 
0.08775002654571093 0.08775002654571093 0.07951337850718523 0.07951337850718523 0.07951337850718523 0.07951337850718523 0.07098500683024309 0.07098500683024309 0.07098500683024309 
0.07098500683024309 0.06220723223793247 0.06220723223793247 0.06220723223793247 0.06220723223793247 0.0532363685230748 0.0532363685230748 0.0532363685230748 0.0532363685230748 
0.04408033863678649 0.04408033863678649 0.04408033863678649 0.04408033863678649 0.03490730348576027 0.03490730348576027 0.03490730348576027 0.03490730348576027 0.02516825696765445 
0.02516825696765445 0.02516825696765445 0.02516825696765445 0.01722262767299796 0.01722262767299796 0.01722262767299796 0.01722262767299796 0.001487618931517148 0.001487618931517148 
0.001487618931517148 0.001487618931517148 -0.01139197912009917 -0.01139197912009917 -0.01139197912009917 -0.01139197912009917 -0.01967324767883873 -0.01967324767883873 -0.01967324767883873 
-0.01967324767883873 -0.03194524900666711 -0.03194524900666711 -0.03194524900666711 -0.03194524900666711 -0.04515487473184052 -0.04515487473184052 -0.04515487473184052 -0.04515487473184052 
-0.05852485544494888 -0.05852485544494888 -0.05852485544494888 -0.05852485544494888 -0.07178364688262986 -0.07178364688262986 -0.07178364688262986 -0.07178364688262986 -0.08477511956361067 
-0.08477511956361067 -0.08477511956361067 -0.08477511956361067 -0.09737992395933698 -0.09737992395933698 -0.09737992395933698 -0.09737992395933698 -0.1095060262456868 -0.1095060262456868 
-0.1095060262456868 -0.1095060262456868 -0.1210896246115851 -0.1210896246115851 -0.1210896246115851 -0.1210896246115851 -0.1320933518717247 -0.1320933518717247 -0.1320933518717247 
-0.1320933518717247 -0.1425000206205299 -0.1425000206205299 -0.1425000206205299 -0.1425000206205299 -0.1523030995687599 -0.1523030995687599 -0.1523030995687599 -0.1523030995687599 
-0.1614969906140392 -0.1614969906140392 -0.1614969906140392 -0.1614969906140392 -0.1700697846627952 -0.1700697846627952 -0.1700697846627952 -0.1700697846627952 -0.1779999970591464 
-0.1779999970591464 -0.1779999970591464 -0.1779999970591464 -0.1852573210440112 -0.1852573210440112 -0.1852573210440112 -0.1852573210440112 -0.1918062088616373 -0.1918062088616373 
-0.1918062088616373 -0.1918062088616373 -0.1976105534406302 -0.1976105534406302 -0.1976105534406302 -0.1976105534406302 -0.2026378389951257 -0.2026378389951257 -0.2026378389951257 
-0.2026378389951257 -0.2068617487272976 -0.2068617487272976 -0.2068617487272976 -0.2068617487272976 -0.2102629514623648 -0.2102629514623648 -0.2102629514623648 -0.2102629514623648 
-0.2128283784014126 -0.2128283784014126 -0.2128283784014126 -0.2128283784014126 -0.2145498034743577 -0.2145498034743577 -0.2145498034743577 -0.2145498034743577 -0.2154227542481507 
-0.2154227542481507 -0.2154227542481507 -0.2154227542481507 -0.2154458100228719 -0.2154458100228719 -0.2154458100228719 -0.2154458100228719 -0.2146199730408078 -0.2146199730408078 
-0.2146199730408078 -0.2146199730408078 -0.2129485104788298 -0.2129485104788298 -0.2129485104788298 -0.2129485104788298 -0.210437436150373 -0.210437436150373 -0.210437436150373 
-0.210437436150373 -0.2070960724289932 -0.2070960724289932 -0.2070960724289932 -0.2070960724289932 -0.2029372819062866 -0.2029372819062866 -0.2029372819062866 -0.2029372819062866 
-0.1979773784844284 -0.1979773784844284 -0.1979773784844284 -0.1979773784844284 -0.1922359565993154 -0.1922359565993154 -0.1922359565993154 -0.1922359565993154 -0.1857357495214942 
-0.1857357495214942 -0.1857357495214942 -0.1857357495214942 -0.1785024902872865 -0.1785024902872865 -0.1785024902872865 -0.1785024902872865 -0.1705647802630636 -0.1705647802630636 
-0.1705647802630636 -0.1705647802630636 -0.1619539670401637 -0.1619539670401637 -0.1619539670401637 -0.1619539670401637 -0.1527040293578991 -0.1527040293578991 -0.1527040293578991 
-0.1527040293578991 -0.1428514591909204 -0.1428514591909204 -0.1428514591909204 -0.1428514591909204 -0.132435141152428 -0.132435141152428 -0.132435141152428 -0.132435141152428 
-0.1214961326262706 -0.1214961326262706 -0.1214961326262706 -0.1214961326262706 -0.1100779991945139 -0.1100779991945139 -0.1100779991945139 -0.1100779991945139 -0.09822385223078957 
-0.09822385223078957 -0.09822385223078957 -0.09822385223078957 -0.08598807456285687 -0.08598807456285687 -0.08598807456285687 -0.08598807456285687 -0.07339980922246239 -0.07339980922246239 
-0.07339980922246239 -0.07339980922246239 -0.06052502771992296 -0.06052502771992296 -0.06052502771992296 -0.06052502771992296 -0.04747187056675326 -0.04747187056675326 -0.04747187056675326 
-0.04747187056675326 -0.03418620560339958 -0.03418620560339958 -0.03418620560339958 -0.03418620560339958 -0.02058580673182037 -0.02058580673182037 -0.02058580673182037 -0.02058580673182037 
-0.00690726493923009 -0.00690726493923009 -0.00690726493923009 -0.00690726493923009 0.006546605580515225 0.006546605580515225 0.006546605580515225 0.006546605580515225 0.01983423824338063 
0.01983423824338063 0.01983423824338063 0.01983423824338063 0.03315409728695794 0.03315409728695794 0.03315409728695794 0.03315409728695794 0.046528818207448 0.046528818207448 
0.046528818207448 0.046528818207448 0.0597529284987245 0.0597529284987245 0.0597529284987245 0.0597529284987245 0.07265745016813323 0.07265745016813323 0.07265745016813323 
0.07265745016813323 0.08523283339135226 0.08523283339135226 0.08523283339135226 0.08523283339135226 0.09747668464164995 0.09747668464164995 0.09747668464164995 0.09747668464164995 
0.1093521739729737 0.1093521739729737 0.1093521739729737 0.1093521739729737 0.1208033947975152 0.1208033947975152 0.1208033947975152 0.1208033947975152 0.1317751716838529 
0.1317751716838529 0.1317751716838529 0.1317751716838529 0.1422249922339203 0.1422249922339203 0.1422249922339203 0.1422249922339203 0.1521133374669022 0.1521133374669022 
0.1521133374669022 0.1521133374669022 0.161401426945688 0.161401426945688 0.161401426945688 0.161401426945688 0.1700525869286051 0.1700525869286051 0.1700525869286051 