Title = Result/Post/Burgers_2D/Sine_Wave_2D/Quad100/
FileType = Solution
Variables = q
Zone T = Result/Post/Burgers_2D/Sine_Wave_2D/Quad100/
ZoneType = FETriangle
Nodes = 40000
Elements = 20000
DataPacking = Block
StrandID = 2
SolutionTime = 0.5
0.681975192221568 0.681975192221568 0.681975192221568 0.681975192221568 0.6886949177262275 0.6886949177262275 0.6886949177262275 0.6886949177262275 0.6948875456682601 0.6948875456682601 
0.6948875456682601 0.6948875456682601 0.7004984140150707 0.7004984140150707 0.7004984140150707 0.7004984140150707 0.7053828264522723 0.7053828264522723 0.7053828264522723 
0.7053828264522723 0.7091193667163496 0.7091193667163496 0.7091193667163496 0.7091193667163496 0.7104784926791986 0.7104784926791986 0.7104784926791986 0.7104784926791986 
0.7060658113604 0.7060658113604 0.7060658113604 0.7060658113604 0.6873840621121969 0.6873840621121969 0.6873840621121969 0.6873840621121969 0.6362664976201622 
0.6362664976201622 0.6362664976201622 0.6362664976201622 0.5246221857808367 0.5246221857808367 0.5246221857808367 0.5246221857808367 0.335962817213911 0.335962817213911 
0.335962817213911 0.335962817213911 0.1221491037961555 0.1221491037961555 0.1221491037961555 0.1221491037961555 0.02190236147089656 0.02190236147089656 0.02190236147089656 
0.02190236147089656 0.01350428980756697 0.01350428980756697 0.01350428980756697 0.01350428980756697 0.01377274673609009 0.01377274673609009 0.01377274673609009 0.01377274673609009 
0.01412173187153503 0.01412173187153503 0.01412173187153503 0.01412173187153503 0.0144390067191105 0.0144390067191105 0.0144390067191105 0.0144390067191105 0.01472555883429451 
0.01472555883429451 0.01472555883429451 0.01472555883429451 0.01498304928708202 0.01498304928708202 0.01498304928708202 0.01498304928708202 0.01521281775704594 0.01521281775704594 
0.01521281775704594 0.01521281775704594 0.01541590655021171 0.01541590655021171 0.01541590655021171 0.01541590655021171 0.01559311207158639 0.01559311207158639 0.01559311207158639 
0.01559311207158639 0.01574517083611947 0.01574517083611947 0.01574517083611947 0.01574517083611947 0.01587362944741152 0.01587362944741152 0.01587362944741152 0.01587362944741152 
0.01595606452753874 0.01595606452753874 0.01595606452753874 0.01595606452753874 0.01598552415539168 0.01598552415539168 0.01598552415539168 0.01598552415539168 0.0159825618937471 
0.0159825618937471 0.0159825618937471 0.0159825618937471 0.01595184932833099 0.01595184932833099 0.01595184932833099 0.01595184932833099 0.01589375304195221 0.01589375304195221 
0.01589375304195221 0.01589375304195221 0.01580737552124819 0.01580737552124819 0.01580737552124819 0.01580737552124819 0.01569124545014015 0.01569124545014015 0.01569124545014015 
0.01569124545014015 0.01554342275015708 0.01554342275015708 0.01554342275015708 0.01554342275015708 0.01536146398979684 0.01536146398979684 0.01536146398979684 0.01536146398979684 
0.01514234359045745 0.01514234359045745 0.01514234359045745 0.01514234359045745 0.01488203940687888 0.01488203940687888 0.01488203940687888 0.01488203940687888 0.01303367847220355 
0.01303367847220355 0.01303367847220355 0.01303367847220355 -0.05661306772185065 -0.05661306772185065 -0.05661306772185065 -0.05661306772185065 -0.2661388835913465 -0.2661388835913465 
-0.2661388835913465 -0.2661388835913465 -0.4710904824307729 -0.4710904824307729 -0.4710904824307729 -0.4710904824307729 -0.6011539519095509 -0.6011539519095509 -0.6011539519095509 
-0.6011539519095509 -0.6652588845689862 -0.6652588845689862 -0.6652588845689862 -0.6652588845689862 -0.6910570941319532 -0.6910570941319532 -0.6910570941319532 -0.6910570941319532 
-0.6988709590841566 -0.6988709590841566 -0.6988709590841566 -0.6988709590841566 -0.6991069278680815 -0.6991069278680815 -0.6991069278680815 -0.6991069278680815 -0.6962159887293203 
-0.6962159887293203 -0.6962159887293203 -0.6962159887293203 -0.6919048136271853 -0.6919048136271853 -0.6919048136271853 -0.6919048136271853 -0.6867752937236731 -0.6867752937236731 
-0.6867752937236731 -0.6867752937236731 -0.6810339047365752 -0.6810339047365752 -0.6810339047365752 -0.6810339047365752 -0.6747547972913186 -0.6747547972913186 -0.6747547972913186 
-0.6747547972913186 -0.667970295309597 -0.667970295309597 -0.667970295309597 -0.667970295309597 -0.6606994827713821 -0.6606994827713821 -0.6606994827713821 -0.6606994827713821 
-0.6529565512621784 -0.6529565512621784 -0.6529565512621784 -0.6529565512621784 -0.6447532459080292 -0.6447532459080292 -0.6447532459080292 -0.6447532459080292 -0.6360997484098121 
-0.6360997484098121 -0.6360997484098121 -0.6360997484098121 -0.6270051264826915 -0.6270051264826915 -0.6270051264826915 -0.6270051264826915 -0.6174775973129493 -0.6174775973129493 
-0.6174775973129493 -0.6174775973129493 -0.6075246370446473 -0.6075246370446473 -0.6075246370446473 -0.6075246370446473 -0.5971528986667736 -0.5971528986667736 -0.5971528986667736 
-0.5971528986667736 -0.5863678374918766 -0.5863678374918766 -0.5863678374918766 -0.5863678374918766 -0.5751728410912622 -0.5751728410912622 -0.5751728410912622 -0.5751728410912622 
-0.5635674782449616 -0.5635674782449616 -0.5635674782449616 -0.5635674782449616 -0.5515441525325746 -0.5515441525325746 -0.5515441525325746 -0.5515441525325746 -0.5390818523191964 
-0.5390818523191964 -0.5390818523191964 -0.5390818523191964 -0.5261346152095339 -0.5261346152095339 -0.5261346152095339 -0.5261346152095339 -0.5126113937291846 -0.5126113937291846 
-0.5126113937291846 -0.5126113937291846 -0.4983419109305334 -0.4983419109305334 -0.4983419109305334 -0.4983419109305334 -0.4830165585724414 -0.4830165585724414 -0.4830165585724414 
-0.4830165585724414 -0.466086351976593 -0.466086351976593 -0.466086351976593 -0.466086351976593 -0.4466028109634107 -0.4466028109634107 -0.4466028109634107 -0.4466028109634107 
-0.4229687314923604 -0.4229687314923604 -0.4229687314923604 -0.4229687314923604 -0.3925620634697271 -0.3925620634697271 -0.3925620634697271 -0.3925620634697271 -0.3511663071854454 
-0.3511663071854454 -0.3511663071854454 -0.3511663071854454 -0.2923562143684246 -0.2923562143684246 -0.2923562143684246 -0.2923562143684246 -0.2027334235847054 -0.2027334235847054 
-0.2027334235847054 -0.2027334235847054 -0.07584762166223977 -0.07584762166223977 -0.07584762166223977 -0.07584762166223977 0.1284972705799426 0.1284972705799426 0.1284972705799426 
0.1284972705799426 0.2386933927974614 0.2386933927974614 0.2386933927974614 0.2386933927974614 0.3212025084436138 0.3212025084436138 0.3212025084436138 0.3212025084436138 
0.3777655485206867 0.3777655485206867 0.3777655485206867 0.3777655485206867 0.4185094581958591 0.4185094581958591 0.4185094581958591 0.4185094581958591 0.4490020185695937 
0.4490020185695937 0.4490020185695937 0.4490020185695937 0.4729278799858933 0.4729278799858933 0.4729278799858933 0.4729278799858933 0.4926749622889576 0.4926749622889576 
0.4926749622889576 0.4926749622889576 0.5097558322042999 0.5097558322042999 0.5097558322042999 0.5097558322042999 0.525105501032284 0.525105501032284 0.525105501032284 
0.525105501032284 0.5392883996550065 0.5392883996550065 0.5392883996550065 0.5392883996550065 0.5526372888474224 0.5526372888474224 0.5526372888474224 0.5526372888474224 
0.5653441289009224 0.5653441289009224 0.5653441289009224 0.5653441289009224 0.5775171899669252 0.5775171899669252 0.5775171899669252 0.5775171899669252 0.5892149449203089 
0.5892149449203089 0.5892149449203089 0.5892149449203089 0.6004668397069903 0.6004668397069903 0.6004668397069903 0.6004668397069903 0.6112859330745422 0.6112859330745422 
0.6112859330745422 0.6112859330745422 0.6216760336475675 0.6216760336475675 0.6216760336475675 0.6216760336475675 0.6316356783763675 0.6316356783763675 0.6316356783763675 
0.6316356783763675 0.6411602955453293 0.6411602955453293 0.6411602955453293 0.6411602955453293 0.6502433167287471 0.6502433167287471 0.6502433167287471 0.6502433167287471 
0.6588766662429939 0.6588766662429939 0.6588766662429939 0.6588766662429939 0.6670508583215249 0.6670508583215249 0.6670508583215249 0.6670508583215249 0.6747547972913184 
0.6747547972913184 0.6747547972913184 0.6747547972913184 0.6886949177262275 0.6886949177262275 0.6886949177262275 0.6886949177262275 0.6958584357614062 0.6958584357614062 
0.6958584357614062 0.6958584357614062 0.7025022175007228 0.7025022175007228 0.7025022175007228 0.7025022175007228 0.7085845259844046 0.7085845259844046 0.7085845259844046 
0.7085845259844046 0.7140018695949457 0.7140018695949457 0.7140018695949457 0.7140018695949457 0.7184563494311069 0.7184563494311069 0.7184563494311069 0.7184563494311069 
0.7210604787154513 0.7210604787154513 0.7210604787154513 0.7210604787154513 0.7192289290067265 0.7192289290067265 0.7192289290067265 0.7192289290067265 0.7060306250236463 
0.7060306250236463 0.7060306250236463 0.7060306250236463 0.6653324141494087 0.6653324141494087 0.6653324141494087 0.6653324141494087 0.5692222965577061 0.5692222965577061 
0.5692222965577061 0.5692222965577061 0.3946328378807464 0.3946328378807464 0.3946328378807464 0.3946328378807464 0.1758421300217204 0.1758421300217204 0.1758421300217204 
0.1758421300217204 0.04654228035102224 0.04654228035102224 0.04654228035102224 0.04654228035102224 0.02862644044760108 0.02862644044760108 0.02862644044760108 0.02862644044760108 
0.02875663782174772 0.02875663782174772 0.02875663782174772 0.02875663782174772 0.0293720075852475 0.0293720075852475 0.0293720075852475 0.0293720075852475 0.0299317558377326 
0.0299317558377326 0.0299317558377326 0.0299317558377326 0.03042971736016756 0.03042971736016756 0.03042971736016756 0.03042971736016756 0.03086968962106596 0.03086968962106596 
0.03086968962106596 0.03086968962106596 0.0312549817945087 0.0312549817945087 0.0312549817945087 0.0312549817945087 0.03158828053555895 0.03158828053555895 0.03158828053555895 
0.03158828053555895 0.03187170826018688 0.03187170826018688 0.03187170826018688 0.03187170826018688 0.03210690123595834 0.03210690123595834 0.03210690123595834 0.03210690123595834 
0.03229523719809013 0.03229523719809013 0.03229523719809013 0.03229523719809013 0.03243135571344428 0.03243135571344428 0.03243135571344428 0.03243135571344428 0.03251174678622114 
0.03251174678622114 0.03251174678622114 0.03251174678622114 0.03254071938982329 0.03254071938982329 0.03254071938982329 0.03254071938982329 0.03252052275500489 0.03252052275500489 
0.03252052275500489 0.03252052275500489 0.03245126685317432 0.03245126685317432 0.03245126685317432 0.03245126685317432 0.03233171346398923 0.03233171346398923 0.03233171346398923 
0.03233171346398923 0.03215970641906042 0.03215970641906042 0.03215970641906042 0.03215970641906042 0.03193228662874625 0.03193228662874625 0.03193228662874625 0.03193228662874625 
0.03164564906239575 0.03164564906239575 0.03164564906239575 0.03164564906239575 0.03129501997777954 0.03129501997777954 0.03129501997777954 0.03129501997777954 0.03087445354293678 
0.03087445354293678 0.03087445354293678 0.03087445354293678 0.03022373417711844 0.03022373417711844 0.03022373417711844 0.03022373417711844 -0.002295228677227443 -0.002295228677227443 
-0.002295228677227443 -0.002295228677227443 -0.1900502169659669 -0.1900502169659669 -0.1900502169659669 -0.1900502169659669 -0.4081694138687934 -0.4081694138687934 -0.4081694138687934 
-0.4081694138687934 -0.5587329361136177 -0.5587329361136177 -0.5587329361136177 -0.5587329361136177 -0.6387062940404072 -0.6387062940404072 -0.6387062940404072 -0.6387062940404072 
-0.6736795156045057 -0.6736795156045057 -0.6736795156045057 -0.6736795156045057 -0.6860044192418805 -0.6860044192418805 -0.6860044192418805 -0.6860044192418805 -0.6883336641027974 
-0.6883336641027974 -0.6883336641027974 -0.6883336641027974 -0.6864816225250979 -0.6864816225250979 -0.6864816225250979 -0.6864816225250979 -0.6828078161178119 -0.6828078161178119 
-0.6828078161178119 -0.6828078161178119 -0.6781777031831553 -0.6781777031831553 -0.6781777031831553 -0.6781777031831553 -0.6728906924647358 -0.6728906924647358 -0.6728906924647358 
-0.6728906924647358 -0.6670508583215256 -0.6670508583215256 -0.6670508583215256 -0.6670508583215256 -0.6606994827713821 -0.6606994827713821 -0.6606994827713821 -0.6606994827713821 
-0.6538583622284513 -0.6538583622284513 -0.6538583622284513 -0.6538583622284513 -0.6465426674256421 -0.6465426674256421 -0.6465426674256421 -0.6465426674256421 -0.638764607151868 
-0.638764607151868 -0.638764607151868 -0.638764607151868 -0.6305346340145962 -0.6305346340145962 -0.6305346340145962 -0.6305346340145962 -0.6218620227732687 -0.6218620227732687 
-0.6218620227732687 -0.6218620227732687 -0.6127552481959327 -0.6127552481959327 -0.6127552481959327 -0.6127552481959327 -0.6032222541109538 -0.6032222541109538 -0.6032222541109538 
-0.6032222541109538 -0.5932706323956094 -0.5932706323956094 -0.5932706323956094 -0.5932706323956094 -0.582907704965104 -0.582907704965104 -0.582907704965104 -0.582907704965104 
-0.5721404745358983 -0.5721404745358983 -0.5721404745358983 -0.5721404745358983 -0.5609753637169633 -0.5609753637169633 -0.5609753637169633 -0.5609753637169633 -0.5494175759435117 
-0.5494175759435117 -0.5494175759435117 -0.5494175759435117 -0.5374697480533797 -0.5374697480533797 -0.5374697480533797 -0.5374697480533797 -0.5251292519406682 -0.5251292519406682 
-0.5251292519406682 -0.5251292519406682 -0.512382908224035 -0.512382908224035 -0.512382908224035 -0.512382908224035 -0.4991967443124017 -0.4991967443124017 -0.4991967443124017 
-0.4991967443124017 -0.4854970176458967 -0.4854970176458967 -0.4854970176458967 -0.4854970176458967 -0.4711363100762374 -0.4711363100762374 -0.4711363100762374 -0.4711363100762374 
-0.4558309025979159 -0.4558309025979159 -0.4558309025979159 -0.4558309025979159 -0.4390510916933569 -0.4390510916933569 -0.4390510916933569 -0.4390510916933569 -0.419836588618168 
-0.419836588618168 -0.419836588618168 -0.419836588618168 -0.3964964900510015 -0.3964964900510015 -0.3964964900510015 -0.3964964900510015 -0.3661413739748314 -0.3661413739748314 
-0.3661413739748314 -0.3661413739748314 -0.3239436324924914 -0.3239436324924914 -0.3239436324924914 -0.3239436324924914 -0.2625444565401809 -0.2625444565401809 -0.2625444565401809 
-0.2625444565401809 -0.167942290978218 -0.167942290978218 -0.167942290978218 -0.167942290978218 -0.01444647188925061 -0.01444647188925061 -0.01444647188925061 -0.01444647188925061 
0.1667441860121562 0.1667441860121562 0.1667441860121562 0.1667441860121562 0.2709182696192166 0.2709182696192166 0.2709182696192166 0.2709182696192166 0.3480832001004537 
0.3480832001004537 0.3480832001004537 0.3480832001004537 0.40324097007248 0.40324097007248 0.40324097007248 0.40324097007248 0.443722606633092 0.443722606633092 
0.443722606633092 0.443722606633092 0.4744399526153836 0.4744399526153836 0.4744399526153836 0.4744399526153836 0.4987082970480359 0.4987082970480359 0.4987082970480359 
0.4987082970480359 0.518742658734338 0.518742658734338 0.518742658734338 0.518742658734338 0.5359908169460815 0.5359908169460815 0.5359908169460815 0.5359908169460815 
0.5513784966452429 0.5513784966452429 0.5513784966452429 0.5513784966452429 0.565485113807761 0.565485113807761 0.565485113807761 0.565485113807761 0.5786656121025424 
0.5786656121025424 0.5786656121025424 0.5786656121025424 0.5911332248311632 0.5911332248311632 0.5911332248311632 0.5911332248311632 0.6030136069231025 0.6030136069231025 
0.6030136069231025 0.6030136069231025 0.6143783503857111 0.6143783503857111 0.6143783503857111 0.6143783503857111 0.6252659405478391 0.6252659405478391 0.6252659405478391 
0.6252659405478391 0.6356953725549324 0.6356953725549324 0.6356953725549324 0.6356953725549324 0.6456741072010207 0.6456741072010207 0.6456741072010207 0.6456741072010207 
0.6552026567065189 0.6552026567065189 0.6552026567065189 0.6552026567065189 0.6642771529539706 0.6642771529539706 0.6642771529539706 0.6642771529539706 0.6728906924647355 
0.6728906924647355 0.6728906924647355 0.6728906924647355 0.6810339047365749 0.6810339047365749 0.6810339047365749 0.6810339047365749 0.6948875456682601 0.6948875456682601 
0.6948875456682601 0.6948875456682601 0.7025022175007228 0.7025022175007228 0.7025022175007228 0.7025022175007228 0.7096009842001176 0.7096009842001176 0.7096009842001176 
0.7096009842001176 0.7161513194330722 0.7161513194330722 0.7161513194330722 0.7161513194330722 0.7220776300323495 0.7220776300323495 0.7220776300323495 0.7220776300323495 
0.7271667145645636 0.7271667145645636 0.7271667145645636 0.7271667145645636 0.7307730781376061 0.7307730781376061 0.7307730781376061 0.7307730781376061 0.7309222511962444 
0.7309222511962444 0.7309222511962444 0.7309222511962444 0.7219245793379822 0.7219245793379822 0.7219245793379822 0.7219245793379822 0.6893748419151204 0.6893748419151204 
0.6893748419151204 0.6893748419151204 0.6055395314496598 0.6055395314496598 0.6055395314496598 0.6055395314496598 0.441625839471332 0.441625839471332 0.441625839471332 
0.441625839471332 0.2194454852007491 0.2194454852007491 0.2194454852007491 0.2194454852007491 0.06988376766655423 0.06988376766655423 0.06988376766655423 0.06988376766655423 
0.04273931642469946 0.04273931642469946 0.04273931642469946 0.04273931642469946 0.04244751485225962 0.04244751485225962 0.04244751485225962 0.04244751485225962 0.04332550365866517 
0.04332550365866517 0.04332550365866517 0.04332550365866517 0.04414388640966255 0.04414388640966255 0.04414388640966255 0.04414388640966255 0.04487310325035499 0.04487310325035499 
0.04487310325035499 0.04487310325035499 0.04551833768994536 0.04551833768994536 0.04551833768994536 0.04551833768994536 0.04608479274946321 0.04608479274946321 0.04608479274946321 
0.04608479274946321 0.04657679381242364 0.04657679381242364 0.04657679381242364 0.04657679381242364 0.04699784982682634 0.04699784982682634 0.04699784982682634 0.04699784982682634 
0.04735073005555655 0.04735073005555655 0.04735073005555655 0.04735073005555655 0.04763756936461948 0.04763756936461948 0.04763756936461948 0.04763756936461948 0.04785785790134803 
0.04785785790134803 0.04785785790134803 0.04785785790134803 0.04801053711519993 0.04801053711519993 0.04801053711519993 0.04801053711519993 0.04809662038376421 0.04809662038376421 
0.04809662038376421 0.04809662038376421 0.04811685827092658 0.04811685827092658 0.04811685827092658 0.04811685827092658 0.04807092265882129 0.04807092265882129 0.04807092265882129 
0.04807092265882129 0.04795739831842611 0.04795739831842611 0.04795739831842611 0.04795739831842611 0.0477738207766671 0.0477738207766671 0.0477738207766671 0.0477738207766671 
0.04751669493941763 0.04751669493941763 0.04751669493941763 0.04751669493941763 0.04718141745142169 0.04718141745142169 0.04718141745142169 0.04718141745142169 0.0467621151037615 
0.0467621151037615 0.0467621151037615 0.0467621151037615 0.04625140110441002 0.04625140110441002 0.04625140110441002 0.04625140110441002 0.04562832100664234 0.04562832100664234 
0.04562832100664234 0.04562832100664234 0.03623845119306098 0.03623845119306098 0.03623845119306098 0.03623845119306098 -0.1072920823590252 -0.1072920823590252 -0.1072920823590252 
-0.1072920823590252 -0.3346622216033875 -0.3346622216033875 -0.3346622216033875 -0.3346622216033875 -0.5074776613713232 -0.5074776613713232 -0.5074776613713232 -0.5074776613713232 
-0.6065214450877627 -0.6065214450877627 -0.6065214450877627 -0.6065214450877627 -0.6532198086735648 -0.6532198086735648 -0.6532198086735648 -0.6532198086735648 -0.6715381176829679 
-0.6715381176829679 -0.6715381176829679 -0.6715381176829679 -0.6766644752585657 -0.6766644752585657 -0.6766644752585657 -0.6766644752585657 -0.6761392902698904 -0.6761392902698904 
-0.6761392902698904 -0.6761392902698904 -0.6732032351103783 -0.6732032351103783 -0.6732032351103783 -0.6732032351103783 -0.669102778356312 -0.669102778356312 -0.669102778356312 
-0.669102778356312 -0.6642771529539711 -0.6642771529539711 -0.6642771529539711 -0.6642771529539711 -0.6588766662429946 -0.6588766662429946 -0.6588766662429946 -0.6588766662429946 
-0.6529565512621784 -0.6529565512621784 -0.6529565512621784 -0.6529565512621784 -0.6465426674256424 -0.6465426674256424 -0.6465426674256424 -0.6465426674256424 -0.6396514967487357 
-0.6396514967487357 -0.6396514967487357 -0.6396514967487357 -0.6322957718277689 -0.6322957718277689 -0.6322957718277689 -0.6322957718277689 -0.6244861681516596 -0.6244861681516596 
-0.6244861681516596 -0.6244861681516596 -0.6162320180753804 -0.6162320180753804 -0.6162320180753804 -0.6162320180753804 -0.6075417552573723 -0.6075417552573723 -0.6075417552573723 
-0.6075417552573723 -0.5984232426417286 -0.5984232426417286 -0.5984232426417286 -0.5984232426417286 -0.588884023032277 -0.588884023032277 -0.588884023032277 -0.588884023032277 
-0.5789315075356896 -0.5789315075356896 -0.5789315075356896 -0.5789315075356896 -0.5685731070184452 -0.5685731070184452 -0.5685731070184452 -0.5685731070184452 -0.5578163007807746 
-0.5578163007807746 -0.5578163007807746 -0.5578163007807746 -0.5466686188192729 -0.5466686188192729 -0.5466686188192729 -0.5466686188192729 -0.5351374801217668 -0.5351374801217668 
-0.5351374801217668 -0.5351374801217668 -0.5232297613729024 -0.5232297613729024 -0.5232297613729024 -0.5232297613729024 -0.510950832089676 -0.510950832089676 -0.510950832089676 
-0.510950832089676 -0.4983025111179412 -0.4983025111179412 -0.4983025111179412 -0.4983025111179412 -0.4852788308676657 -0.4852788308676657 -0.4852788308676657 -0.4852788308676657 
-0.4718573493047491 -0.4718573493047491 -0.4718573493047491 -0.4718573493047491 -0.4579819995565394 -0.4579819995565394 -0.4579819995565394 -0.4579819995565394 -0.4435304401670845 
-0.4435304401670845 -0.4435304401670845 -0.4435304401670845 -0.4282503215727337 -0.4282503215727337 -0.4282503215727337 -0.4282503215727337 -0.4116411674193587 -0.4116411674193587 
-0.4116411674193587 -0.4116411674193587 -0.3927446665165389 -0.3927446665165389 -0.3927446665165389 -0.3927446665165389 -0.3697889123544439 -0.3697889123544439 -0.3697889123544439 
-0.3697889123544439 -0.3396181127131785 -0.3396181127131785 -0.3396181127131785 -0.3396181127131785 -0.2967588946175857 -0.2967588946175857 -0.2967588946175857 -0.2967588946175857 
-0.2321941938386499 -0.2321941938386499 -0.2321941938386499 -0.2321941938386499 -0.1341469695694632 -0.1341469695694632 -0.1341469695694632 -0.1341469695694632 0.04232274487971985 
0.04232274487971985 0.04232274487971985 0.04232274487971985 0.1966560087681414 0.1966560087681414 0.1966560087681414 0.1966560087681414 0.2994349525454707 0.2994349525454707 
0.2994349525454707 0.2994349525454707 0.373378654213695 0.373378654213695 0.373378654213695 0.373378654213695 0.4276300708338738 0.4276300708338738 0.4276300708338738 
0.4276300708338738 0.4680978995410897 0.4680978995410897 0.4680978995410897 0.4680978995410897 0.4991591577811282 0.4991591577811282 0.4991591577811282 0.4991591577811282 
0.5238353067399981 0.5238353067399981 0.5238353067399981 0.5238353067399981 0.5441994036916594 0.5441994036916594 0.5441994036916594 0.5441994036916594 0.5616466295746663 
0.5616466295746663 0.5616466295746663 0.5616466295746663 0.5770971488145746 0.5770971488145746 0.5770971488145746 0.5770971488145746 0.5911458776000633 0.5911458776000633 
0.5911458776000633 0.5911458776000633 0.6041698408173679 0.6041698408173679 0.6041698408173679 0.6041698408173679 0.6164036099162034 0.6164036099162034 0.6164036099162034 
0.6164036099162034 0.6279906357201922 0.6279906357201922 0.6279906357201922 0.6279906357201922 0.6390163665821466 0.6390163665821466 0.6390163665821466 0.6390163665821466 
0.6495290210195412 0.6495290210195412 0.6495290210195412 0.6495290210195412 0.6595540359622969 0.6595540359622969 0.6595540359622969 0.6595540359622969 0.6691027783563119 
0.6691027783563119 0.6691027783563119 0.6691027783563119 0.6781777031831552 0.6781777031831552 0.6781777031831552 0.6781777031831552 0.686775293723673 0.686775293723673 
0.686775293723673 0.686775293723673 0.7004984140150707 0.7004984140150707 0.7004984140150707 0.7004984140150707 0.7085845259844046 0.7085845259844046 0.7085845259844046 
0.7085845259844046 0.7161513194330724 0.7161513194330724 0.7161513194330724 0.7161513194330724 0.7231748325297651 0.7231748325297651 0.7231748325297651 0.7231748325297651 
0.729599670748859 0.729599670748859 0.729599670748859 0.729599670748859 0.7352714621799872 0.7352714621799872 0.7352714621799872 0.7352714621799872 0.7397147578815522 
0.7397147578815522 0.7397147578815522 0.7397147578815522 0.7414066892937462 0.7414066892937462 0.7414066892937462 0.7414066892937462 0.7355992686157096 0.7355992686157096 
0.7355992686157096 0.7355992686157096 0.7091598090122913 0.7091598090122913 0.7091598090122913 0.7091598090122913 0.6340509217058415 0.6340509217058415 0.6340509217058415 
0.6340509217058415 0.4763122563922598 0.4763122563922598 0.4763122563922598 0.4763122563922598 0.2502775535143776 0.2502775535143776 0.2502775535143776 0.2502775535143776 
0.08908049304188473 0.08908049304188473 0.08908049304188473 0.08908049304188473 0.05615720438722961 0.05615720438722961 0.05615720438722961 0.05615720438722961 0.05551135430604499 
0.05551135430604499 0.05551135430604499 0.05551135430604499 0.05666478466246314 0.05666478466246314 0.05666478466246314 0.05666478466246314 0.05776363372298946 0.05776363372298946 
0.05776363372298946 0.05776363372298946 0.05874680027377735 0.05874680027377735 0.05874680027377735 0.05874680027377735 0.05962025290626186 0.05962025290626186 0.05962025290626186 
0.05962025290626186 0.06039115521165377 0.06039115521165377 0.06039115521165377 0.06039115521165377 0.06106558437419571 0.06106558437419571 0.06106558437419571 0.06106558437419571 
0.06164856221291232 0.06164856221291232 0.06164856221291232 0.06164856221291232 0.06214414794341006 0.06214414794341006 0.06214414794341006 0.06214414794341006 0.06255552539087177 
0.06255552539087177 0.06255552539087177 0.06255552539087177 0.0628843539646744 0.0628843539646744 0.0628843539646744 0.0628843539646744 0.06313128116182742 0.06313128116182742 
0.06313128116182742 0.06313128116182742 0.06329703003676543 0.06329703003676543 0.06329703003676543 0.06329703003676543 0.06338194691690946 0.06338194691690946 0.06338194691690946 
0.06338194691690946 0.06338552205113109 0.06338552205113109 0.06338552205113109 0.06338552205113109 0.06330627550723286 0.06330627550723286 0.06330627550723286 0.06330627550723286 
0.06314166268663196 0.06314166268663196 0.06314166268663196 0.06314166268663196 0.06288794774097464 0.06288794774097464 0.06288794774097464 0.06288794774097464 0.06254007848167152 
0.06254007848167152 0.06254007848167152 0.06254007848167152 0.06209148745383847 0.06209148745383847 0.06209148745383847 0.06209148745383847 0.06153380260444317 0.06153380260444317 
0.06153380260444317 0.06153380260444317 0.06085562940967552 0.06085562940967552 0.06085562940967552 0.06085562940967552 0.05860559361287303 0.05860559361287303 0.05860559361287303 
0.05860559361287303 -0.02018783723378183 -0.02018783723378183 -0.02018783723378183 -0.02018783723378183 -0.2501178515809983 -0.2501178515809983 -0.2501178515809983 -0.2501178515809983 
-0.4457597559302968 -0.4457597559302968 -0.4457597559302968 -0.4457597559302968 -0.5672215449340783 -0.5672215449340783 -0.5672215449340783 -0.5672215449340783 -0.6287255097450566 
-0.6287255097450566 -0.6287255097450566 -0.6287255097450566 -0.654985032849051 -0.654985032849051 -0.654985032849051 -0.654985032849051 -0.6638929473354966 -0.6638929473354966 
-0.6638929473354966 -0.6638929473354966 -0.6651178456567324 -0.6651178456567324 -0.6651178456567324 -0.6651178456567324 -0.6630755476001626 -0.6630755476001626 -0.6630755476001626 
-0.6630755476001626 -0.659554035962297 -0.659554035962297 -0.659554035962297 -0.659554035962297 -0.6552026567065193 -0.6552026567065193 -0.6552026567065193 -0.6552026567065193 
-0.6502433167287478 -0.6502433167287478 -0.6502433167287478 -0.6502433167287478 -0.6447532459080292 -0.6447532459080292 -0.6447532459080292 -0.6447532459080292 -0.638764607151868 
-0.638764607151868 -0.638764607151868 -0.638764607151868 -0.6322957718277686 -0.6322957718277686 -0.6322957718277686 -0.6322957718277686 -0.6253601580870858 -0.6253601580870858 
-0.6253601580870858 -0.6253601580870858 -0.6179687159665985 -0.6179687159665985 -0.6179687159665985 -0.6179687159665985 -0.6101308356793085 -0.6101308356793085 -0.6101308356793085 
-0.6101308356793085 -0.6018548618926904 -0.6018548618926904 -0.6018548618926904 -0.6018548618926904 -0.5931484662011586 -0.5931484662011586 -0.5931484662011586 -0.5931484662011586 
-0.5840189356066547 -0.5840189356066547 -0.5840189356066547 -0.5840189356066547 -0.5744733989981439 -0.5744733989981439 -0.5744733989981439 -0.5744733989981439 -0.5645190045074318 
-0.5645190045074318 -0.5645190045074318 -0.5645190045074318 -0.5541630556516818 -0.5541630556516818 -0.5541630556516818 -0.5541630556516818 -0.5434131096814123 -0.5434131096814123 
-0.5434131096814123 -0.5434131096814123 -0.5322770355471528 -0.5322770355471528 -0.5322770355471528 -0.5322770355471528 -0.5207630180846576 -0.5207630180846576 -0.5207630180846576 
-0.5207630180846576 -0.508879472599617 -0.508879472599617 -0.508879472599617 -0.508879472599617 -0.4966347853549047 -0.4966347853549047 -0.4966347853549047 -0.4966347853549047 
-0.4840366887545174 -0.4840366887545174 -0.4840366887545174 -0.4840366887545174 -0.4710908466852395 -0.4710908466852395 -0.4710908466852395 -0.4710908466852395 -0.4577977182948809 
-0.4577977182948809 -0.4577977182948809 -0.4577977182948809 -0.4441456719744923 -0.4441456719744923 -0.4441456719744923 -0.4441456719744923 -0.430096391922336 -0.430096391922336 
-0.430096391922336 -0.430096391922336 -0.4155549025540813 -0.4155549025540813 -0.4155549025540813 -0.4155549025540813 -0.4003070204902436 -0.4003070204902436 -0.4003070204902436 
-0.4003070204902436 -0.3838953575618272 -0.3838953575618272 -0.3838953575618272 -0.3838953575618272 -0.365384338732046 -0.365384338732046 -0.365384338732046 -0.365384338732046 