Title = Result/Post/Burgers_2D/Sine_Wave_2D/Quad100/
FileType = Solution
Variables = q
Zone T = Result/Post/Burgers_2D/Sine_Wave_2D/Quad100/
ZoneType = FETriangle
Nodes = 40000
Elements = 20000
DataPacking = Block
StrandID = 2
SolutionTime = 2
0.4206411281629277 0.4206411281629277 0.4206411281629277 0.4206411281629277 0.4217156792842881 0.4217156792842881 0.4217156792842881 0.4217156792842881 0.4217548435648361 0.4217548435648361 
0.4217548435648361 0.4217548435648361 0.4206508536292011 0.4206508536292011 0.4206508536292011 0.4206508536292011 0.4182718869271959 0.4182718869271959 0.4182718869271959 
0.4182718869271959 0.4144604026273595 0.4144604026273595 0.4144604026273595 0.4144604026273595 0.4090340896568636 0.4090340896568636 0.4090340896568636 0.4090340896568636 
0.4017893937558569 0.4017893937558569 0.4017893937558569 0.4017893937558569 0.3925102193593293 0.3925102193593293 0.3925102193593293 0.3925102193593293 0.380986423740872 
0.380986423740872 0.380986423740872 0.380986423740872 0.367049280364237 0.367049280364237 0.367049280364237 0.367049280364237 0.350632495460402 0.350632495460402 
0.350632495460402 0.350632495460402 0.3318626544717945 0.3318626544717945 0.3318626544717945 0.3318626544717945 0.3111631780879928 0.3111631780879928 0.3111631780879928 
0.3111631780879928 0.289314941607091 0.289314941607091 0.289314941607091 0.289314941607091 0.2673747395589902 0.2673747395589902 0.2673747395589902 0.2673747395589902 
0.2463789085695451 0.2463789085695451 0.2463789085695451 0.2463789085695451 0.2269164883610155 0.2269164883610155 0.2269164883610155 0.2269164883610155 0.2088365855062582 
0.2088365855062582 0.2088365855062582 0.2088365855062582 0.1912970716797049 0.1912970716797049 0.1912970716797049 0.1912970716797049 0.1730650443057915 0.1730650443057915 
0.1730650443057915 0.1730650443057915 0.1527968979705799 0.1527968979705799 0.1527968979705799 0.1527968979705799 0.129093856124064 0.129093856124064 0.129093856124064 
0.129093856124064 0.1001649762310308 0.1001649762310308 0.1001649762310308 0.1001649762310308 0.0623741809497718 0.0623741809497718 0.0623741809497718 0.0623741809497718 
0.001604183725599351 0.001604183725599351 0.001604183725599351 0.001604183725599351 -0.06087410238261375 -0.06087410238261375 -0.06087410238261375 -0.06087410238261375 -0.09915515129952726 
-0.09915515129952726 -0.09915515129952726 -0.09915515129952726 -0.1283015351850408 -0.1283015351850408 -0.1283015351850408 -0.1283015351850408 -0.1522131752475183 -0.1522131752475183 
-0.1522131752475183 -0.1522131752475183 -0.1728805931374595 -0.1728805931374595 -0.1728805931374595 -0.1728805931374595 -0.1918400769076925 -0.1918400769076925 -0.1918400769076925 
-0.1918400769076925 -0.2104561264639987 -0.2104561264639987 -0.2104561264639987 -0.2104561264639987 -0.2298046524838274 -0.2298046524838274 -0.2298046524838274 -0.2298046524838274 
-0.2504075035262733 -0.2504075035262733 -0.2504075035262733 -0.2504075035262733 -0.272077802745737 -0.272077802745737 -0.272077802745737 -0.272077802745737 -0.2940573965192535 
-0.2940573965192535 -0.2940573965192535 -0.2940573965192535 -0.315372558158097 -0.315372558158097 -0.315372558158097 -0.315372558158097 -0.3351720166446307 -0.3351720166446307 
-0.3351720166446307 -0.3351720166446307 -0.3528948156744175 -0.3528948156744175 -0.3528948156744175 -0.3528948156744175 -0.3682770401187 -0.3682770401187 -0.3682770401187 
-0.3682770401187 -0.3812789501708351 -0.3812789501708351 -0.3812789501708351 -0.3812789501708351 -0.391999817052317 -0.391999817052317 -0.391999817052317 -0.391999817052317 
-0.4006107265828374 -0.4006107265828374 -0.4006107265828374 -0.4006107265828374 -0.407310472807117 -0.407310472807117 -0.407310472807117 -0.407310472807117 -0.4122996847699125 
-0.4122996847699125 -0.4122996847699125 -0.4122996847699125 -0.4157668281594811 -0.4157668281594811 -0.4157668281594811 -0.4157668281594811 -0.4178811671092018 -0.4178811671092018 
-0.4178811671092018 -0.4178811671092018 -0.4187895576320112 -0.4187895576320112 -0.4187895576320112 -0.4187895576320112 -0.4186153180964519 -0.4186153180964519 -0.4186153180964519 
-0.4186153180964519 -0.4174596397351731 -0.4174596397351731 -0.4174596397351731 -0.4174596397351731 -0.4154010316342657 -0.4154010316342657 -0.4154010316342657 -0.4154010316342657 
-0.4124952174625221 -0.4124952174625221 -0.4124952174625221 -0.4124952174625221 -0.408776997416855 -0.408776997416855 -0.408776997416855 -0.408776997416855 -0.4042628972040925 
-0.4042628972040925 -0.4042628972040925 -0.4042628972040925 -0.3989519136689728 -0.3989519136689728 -0.3989519136689728 -0.3989519136689728 -0.3928273994275273 -0.3928273994275273 
-0.3928273994275273 -0.3928273994275273 -0.3858591719980755 -0.3858591719980755 -0.3858591719980755 -0.3858591719980755 -0.3780057517569138 -0.3780057517569138 -0.3780057517569138 
-0.3780057517569138 -0.3692167322259755 -0.3692167322259755 -0.3692167322259755 -0.3692167322259755 -0.3594352719861736 -0.3594352719861736 -0.3594352719861736 -0.3594352719861736 
-0.3486006687835181 -0.3486006687835181 -0.3486006687835181 -0.3486006687835181 -0.3366509232374349 -0.3366509232374349 -0.3366509232374349 -0.3366509232374349 -0.3235251101655227 
-0.3235251101655227 -0.3235251101655227 -0.3235251101655227 -0.3091652261261174 -0.3091652261261174 -0.3091652261261174 -0.3091652261261174 -0.2935169342037245 -0.2935169342037245 
-0.2935169342037245 -0.2935169342037245 -0.2765282153013292 -0.2765282153013292 -0.2765282153013292 -0.2765282153013292 -0.2581442342302024 -0.2581442342302024 -0.2581442342302024 
-0.2581442342302024 -0.2382954789128023 -0.2382954789128023 -0.2382954789128023 -0.2382954789128023 -0.2168738292658517 -0.2168738292658517 -0.2168738292658517 -0.2168738292658517 
-0.1936860815021513 -0.1936860815021513 -0.1936860815021513 -0.1936860815021513 -0.1683618933627587 -0.1683618933627587 -0.1683618933627587 -0.1683618933627587 -0.1401568169172886 
-0.1401568169172886 -0.1401568169172886 -0.1401568169172886 -0.1074617312915244 -0.1074617312915244 -0.1074617312915244 -0.1074617312915244 -0.06620644056836639 -0.06620644056836639 
-0.06620644056836639 -0.06620644056836639 -0.001175989647567873 -0.001175989647567873 -0.001175989647567873 -0.001175989647567873 0.06500381542099017 0.06500381542099017 0.06500381542099017 
0.06500381542099017 0.1065390491820974 0.1065390491820974 0.1065390491820974 0.1065390491820974 0.1393611953498363 0.1393611953498363 0.1393611953498363 0.1393611953498363 
0.1676657986998372 0.1676657986998372 0.1676657986998372 0.1676657986998372 0.1931042255006447 0.1931042255006447 0.1931042255006447 0.1931042255006447 0.2164378592564397 
0.2164378592564397 0.2164378592564397 0.2164378592564397 0.2380421155905668 0.2380421155905668 0.2380421155905668 0.2380421155905668 0.2581086112937999 0.2581086112937999 
0.2581086112937999 0.2581086112937999 0.2767401006612258 0.2767401006612258 0.2767401006612258 0.2767401006612258 0.2939988238432516 0.2939988238432516 0.2939988238432516 
0.2939988238432516 0.3099316849495765 0.3099316849495765 0.3099316849495765 0.3099316849495765 0.3245829086416943 0.3245829086416943 0.3245829086416943 0.3245829086416943 
0.3379996381749798 0.3379996381749798 0.3379996381749798 0.3379996381749798 0.3502335113778208 0.3502335113778208 0.3502335113778208 0.3502335113778208 0.361339981181152 
0.361339981181152 0.361339981181152 0.361339981181152 0.3713764281274945 0.3713764281274945 0.3713764281274945 0.3713764281274945 0.3803996847850995 0.3803996847850995 
0.3803996847850995 0.3803996847850995 0.388463331740466 0.388463331740466 0.388463331740466 0.388463331740466 0.3956149652658039 0.3956149652658039 0.3956149652658039 
0.3956149652658039 0.4018935393688115 0.4018935393688115 0.4018935393688115 0.4018935393688115 0.4073268271639459 0.4073268271639459 0.4073268271639459 0.4073268271639459 
0.4119290133237064 0.4119290133237064 0.4119290133237064 0.4119290133237064 0.4156984105982617 0.4156984105982617 0.4156984105982617 0.4156984105982617 0.4186153180964518 
0.4186153180964518 0.4186153180964518 0.4186153180964518 0.4217156792842881 0.4217156792842881 0.4217156792842881 0.4217156792842881 0.4237035247009246 0.4237035247009246 
0.4237035247009246 0.4237035247009246 0.4246876405469528 0.4246876405469528 0.4246876405469528 0.4246876405469528 0.4245771276597772 0.4245771276597772 0.4245771276597772 
0.4245771276597772 0.4232560499380203 0.4232560499380203 0.4232560499380203 0.4232560499380203 0.4205817237440947 0.4205817237440947 0.4205817237440947 0.4205817237440947 
0.4163827024200677 0.4163827024200677 0.4163827024200677 0.4163827024200677 0.4104593753960983 0.4104593753960983 0.4104593753960983 0.4104593753960983 0.4025880195099213 
0.4025880195099213 0.4025880195099213 0.4025880195099213 0.392532281912748 0.392532281912748 0.392532281912748 0.392532281912748 0.3800692280624421 0.3800692280624421 
0.3800692280624421 0.3800692280624421 0.3650406405937925 0.3650406405937925 0.3650406405937925 0.3650406405937925 0.3474404025732417 0.3474404025732417 0.3474404025732417 
0.3474404025732417 0.3275360991873364 0.3275360991873364 0.3275360991873364 0.3275360991873364 0.3059846955296522 0.3059846955296522 0.3059846955296522 0.3059846955296522 
0.2838422137687934 0.2838422137687934 0.2838422137687934 0.2838422137687934 0.2623448914809386 0.2623448914809386 0.2623448914809386 0.2623448914809386 0.2424589969349801 
0.2424589969349801 0.2424589969349801 0.2424589969349801 0.2244402043639854 0.2244402043639854 0.2244402043639854 0.2244402043639854 0.2077246496883179 0.2077246496883179 
0.2077246496883179 0.2077246496883179 0.1911966472933344 0.1911966472933344 0.1911966472933344 0.1911966472933344 0.1735652455490796 0.1735652455490796 0.1735652455490796 
0.1735652455490796 0.1535870952860469 0.1535870952860469 0.1535870952860469 0.1535870952860469 0.1300377401020852 0.1300377401020852 0.1300377401020852 0.1300377401020852 
0.1013163684684191 0.1013163684684191 0.1013163684684191 0.1013163684684191 0.06397680355542504 0.06397680355542504 0.06397680355542504 0.06397680355542504 0.004673475607370015 
0.004673475607370015 0.004673475607370015 0.004673475607370015 -0.05955477053711689 -0.05955477053711689 -0.05955477053711689 -0.05955477053711689 -0.09830384120304754 -0.09830384120304754 
-0.09830384120304754 -0.09830384120304754 -0.1276747607574572 -0.1276747607574572 -0.1276747607574572 -0.1276747607574572 -0.1518582581843487 -0.1518582581843487 -0.1518582581843487 
-0.1518582581843487 -0.1730244694987998 -0.1730244694987998 -0.1730244694987998 -0.1730244694987998 -0.192792410600903 -0.192792410600903 -0.192792410600903 -0.192792410600903 
-0.2124676116264913 -0.2124676116264913 -0.2124676116264913 -0.2124676116264913 -0.2329058040820806 -0.2329058040820806 -0.2329058040820806 -0.2329058040820806 -0.2543255566038159 
-0.2543255566038159 -0.2543255566038159 -0.2543255566038159 -0.2763115179714825 -0.2763115179714825 -0.2763115179714825 -0.2763115179714825 -0.2980630312774489 -0.2980630312774489 
-0.2980630312774489 -0.2980630312774489 -0.3187293326627301 -0.3187293326627301 -0.3187293326627301 -0.3187293326627301 -0.3376466870650606 -0.3376466870650606 -0.3376466870650606 
-0.3376466870650606 -0.3544193737665467 -0.3544193737665467 -0.3544193737665467 -0.3544193737665467 -0.3688917479165082 -0.3688917479165082 -0.3688917479165082 -0.3688917479165082 
-0.3810789981179537 -0.3810789981179537 -0.3810789981179537 -0.3810789981179537 -0.3910992990602422 -0.3910992990602422 -0.3910992990602422 -0.3910992990602422 -0.3991230001566671 
-0.3991230001566671 -0.3991230001566671 -0.3991230001566671 -0.4053395274739771 -0.4053395274739771 -0.4053395274739771 -0.4053395274739771 -0.4099376079525828 -0.4099376079525828 
-0.4099376079525828 -0.4099376079525828 -0.4130941454025129 -0.4130941454025129 -0.4130941454025129 -0.4130941454025129 -0.4149682783651918 -0.4149682783651918 -0.4149682783651918 
-0.4149682783651918 -0.415698410598262 -0.415698410598262 -0.415698410598262 -0.415698410598262 -0.4154010316342657 -0.4154010316342657 -0.4154010316342657 -0.4154010316342657 
-0.4141718548774193 -0.4141718548774193 -0.4141718548774193 -0.4141718548774193 -0.4120846533358306 -0.4120846533358306 -0.4120846533358306 -0.4120846533358306 -0.4091913512902075 
-0.4091913512902075 -0.4091913512902075 -0.4091913512902075 -0.4055234888083576 -0.4055234888083576 -0.4055234888083576 -0.4055234888083576 -0.4010947727377236 -0.4010947727377236 
-0.4010947727377236 -0.4010947727377236 -0.3959018318528218 -0.3959018318528218 -0.3959018318528218 -0.3959018318528218 -0.389925848213344 -0.389925848213344 -0.389925848213344 
-0.389925848213344 -0.3831345154911184 -0.3831345154911184 -0.3831345154911184 -0.3831345154911184 -0.3754841250894071 -0.3754841250894071 -0.3754841250894071 -0.3754841250894071 
-0.3669217826799849 -0.3669217826799849 -0.3669217826799849 -0.3669217826799849 -0.3573877465669454 -0.3573877465669454 -0.3573877465669454 -0.3573877465669454 -0.3468178513900635 
-0.3468178513900635 -0.3468178513900635 -0.3468178513900635 -0.335145933934578 -0.335145933934578 -0.335145933934578 -0.335145933934578 -0.3223060950112173 -0.3223060950112173 
-0.3223060950112173 -0.3223060950112173 -0.3082344903704312 -0.3082344903704312 -0.3082344903704312 -0.3082344903704312 -0.2928701078119151 -0.2928701078119151 -0.2928701078119151 
-0.2928701078119151 -0.2761535916947529 -0.2761535916947529 -0.2761535916947529 -0.2761535916947529 -0.2580224957802494 -0.2580224957802494 -0.2580224957802494 -0.2580224957802494 
-0.2384001228467202 -0.2384001228467202 -0.2384001228467202 -0.2384001228467202 -0.2171727493602565 -0.2171727493602565 -0.2171727493602565 -0.2171727493602565 -0.194144989324079 
-0.194144989324079 -0.194144989324079 -0.194144989324079 -0.1689507507597013 -0.1689507507597013 -0.1689507507597013 -0.1689507507597013 -0.1408619237061129 -0.1408619237061129 
-0.1408619237061129 -0.1408619237061129 -0.1083120990470434 -0.1083120990470434 -0.1083120990470434 -0.1083120990470434 -0.0673569753190574 -0.0673569753190574 -0.0673569753190574 
-0.0673569753190574 -0.003436616662628964 -0.003436616662628964 -0.003436616662628964 -0.003436616662628964 0.06382549454081034 0.06382549454081034 0.06382549454081034 0.06382549454081034 
0.1055846551674126 0.1055846551674126 0.1055846551674126 0.1055846551674126 0.1384971192839467 0.1384971192839467 0.1384971192839467 0.1384971192839467 0.1668731953547057 
0.1668731953547057 0.1668731953547057 0.1668731953547057 0.1924026017284193 0.1924026017284193 0.1924026017284193 0.1924026017284193 0.2158626670079404 0.2158626670079404 
0.2158626670079404 0.2158626670079404 0.2376339028129267 0.2376339028129267 0.2376339028129267 0.2376339028129267 0.2579065252931516 0.2579065252931516 0.2579065252931516 
0.2579065252931516 0.2767779440567538 0.2767779440567538 0.2767779440567538 0.2767779440567538 0.2943029102182932 0.2943029102182932 0.2943029102182932 0.2943029102182932 
0.310519979701507 0.310519979701507 0.310519979701507 0.310519979701507 0.3254650380565441 0.3254650380565441 0.3254650380565441 0.3254650380565441 0.3391774326614732 
0.3391774326614732 0.3391774326614732 0.3391774326614732 0.3517018296529184 0.3517018296529184 0.3517018296529184 0.3517018296529184 0.3630876346510593 0.3630876346510593 
0.3630876346510593 0.3630876346510593 0.3733870838842032 0.3733870838842032 0.3733870838842032 0.3733870838842032 0.3826526704533549 0.3826526704533549 0.3826526704533549 
0.3826526704533549 0.3909342969746054 0.3909342969746054 0.3909342969746054 0.3909342969746054 0.3982763752857524 0.3982763752857524 0.3982763752857524 0.3982763752857524 
0.4047149883319914 0.4047149883319914 0.4047149883319914 0.4047149883319914 0.4102751648507732 0.4102751648507732 0.4102751648507732 0.4102751648507732 0.4149682783651916 
0.4149682783651916 0.4149682783651916 0.4149682783651916 0.4187895576320111 0.4187895576320111 0.4187895576320111 0.4187895576320111 0.4217548435648361 0.4217548435648361 
0.4217548435648361 0.4217548435648361 0.4246876405469528 0.4246876405469528 0.4246876405469528 0.4246876405469528 0.4266310309703446 0.4266310309703446 0.4266310309703446 
0.4266310309703446 0.4275130947082688 0.4275130947082688 0.4275130947082688 0.4275130947082688 0.4272345708282982 0.4272345708282982 0.4272345708282982 0.4272345708282982 
0.4256689846590336 0.4256689846590336 0.4256689846590336 0.4256689846590336 0.4226593675157869 0.4226593675157869 0.4226593675157869 0.4226593675157869 0.418015554970665 
0.418015554970665 0.418015554970665 0.418015554970665 0.4115142772969512 0.4115142772969512 0.4115142772969512 0.4115142772969512 0.4029042833498322 0.4029042833498322 
0.4029042833498322 0.4029042833498322 0.3919229893604373 0.3919229893604373 0.3919229893604373 0.3919229893604373 0.3783361128055948 0.3783361128055948 0.3783361128055948 
0.3783361128055948 0.3620159839700471 0.3620159839700471 0.3620159839700471 0.3620159839700471 0.3430691360094256 0.3430691360094256 0.3430691360094256 0.3430691360094256 
0.3219926639852742 0.3219926639852742 0.3219926639852742 0.3219926639852742 0.2997707051826541 0.2997707051826541 0.2997707051826541 0.2997707051826541 0.2777568632761618 
0.2777568632761618 0.2777568632761618 0.2777568632761618 0.257249337382188 0.257249337382188 0.257249337382188 0.257249337382188 0.2389303941105063 0.2389303941105063 
0.2389303941105063 0.2389303941105063 0.222568852056781 0.222568852056781 0.222568852056781 0.222568852056781 0.2071955632002382 0.2071955632002382 0.2071955632002382 
0.2071955632002382 0.191534550586787 0.191534550586787 0.191534550586787 0.191534550586787 0.1743485327791078 0.1743485327791078 0.1743485327791078 0.1743485327791078 
0.1545550692638542 0.1545550692638542 0.1545550692638542 0.1545550692638542 0.1311124480751379 0.1311124480751379 0.1311124480751379 0.1311124480751379 0.102566070228041 
0.102566070228041 0.102566070228041 0.102566070228041 0.06557562471480848 0.06557562471480848 0.06557562471480848 0.06557562471480848 0.007420458029334245 0.007420458029334245 
0.007420458029334245 0.007420458029334245 -0.05844334631962706 -0.05844334631962706 -0.05844334631962706 -0.05844334631962706 -0.09761392387625531 -0.09761392387625531 -0.09761392387625531 
-0.09761392387625531 -0.1272241724952722 -0.1272241724952722 -0.1272241724952722 -0.1272241724952722 -0.1517444630872629 -0.1517444630872629 -0.1517444630872629 -0.1517444630872629 
-0.1734863278503224 -0.1734863278503224 -0.1734863278503224 -0.1734863278503224 -0.1940903607226068 -0.1940903607226068 -0.1940903607226068 -0.1940903607226068 -0.2147390257814824 
-0.2147390257814824 -0.2147390257814824 -0.2147390257814824 -0.2360475431260027 -0.2360475431260027 -0.2360475431260027 -0.2360475431260027 -0.2579884784656009 -0.2579884784656009 
-0.2579884784656009 -0.2579884784656009 -0.2800217059697451 -0.2800217059697451 -0.2800217059697451 -0.2800217059697451 -0.3013821721178522 -0.3013821721178522 -0.3013821721178522 
-0.3013821721178522 -0.3213567422819564 -0.3213567422819564 -0.3213567422819564 -0.3213567422819564 -0.3394374002613489 -0.3394374002613489 -0.3394374002613489 -0.3394374002613489 
-0.3553501347477265 -0.3553501347477265 -0.3553501347477265 -0.3553501347477265 -0.3690139645617946 -0.3690139645617946 -0.3690139645617946 -0.3690139645617946 -0.3804802133364666 
-0.3804802133364666 -0.3804802133364666 -0.3804802133364666 -0.389878505486443 -0.389878505486443 -0.389878505486443 -0.389878505486443 -0.3973774256978145 -0.3973774256978145 
-0.3973774256978145 -0.3973774256978145 -0.403158824778958 -0.403158824778958 -0.403158824778958 -0.403158824778958 -0.4074021271758306 -0.4074021271758306 -0.4074021271758306 
-0.4074021271758306 -0.4102751648507733 -0.4102751648507733 -0.4102751648507733 -0.4102751648507733 -0.4119290133237067 -0.4119290133237067 -0.4119290133237067 -0.4119290133237067 
-0.4124952174625223 -0.4124952174625223 -0.4124952174625223 -0.4124952174625223 -0.4120846533358307 -0.4120846533358307 -0.4120846533358307 -0.4120846533358307 -0.4107883640864249 
-0.4107883640864249 -0.4107883640864249 -0.4107883640864249 -0.4086760554691902 -0.4086760554691902 -0.4086760554691902 -0.4086760554691902 -0.4057963449621587 -0.4057963449621587 
-0.4057963449621587 -0.4057963449621587 -0.402177948004514 -0.402177948004514 -0.402177948004514 -0.402177948004514 -0.3978320435769772 -0.3978320435769772 -0.3978320435769772 
-0.3978320435769772 -0.3927531623026353 -0.3927531623026353 -0.3927531623026353 -0.3927531623026353 -0.3869205661100404 -0.3869205661100404 -0.3869205661100404 -0.3869205661100404 
-0.3803000718665779 -0.3803000718665779 -0.3803000718665779 -0.3803000718665779 -0.3728459997487497 -0.3728459997487497 -0.3728459997487497 -0.3728459997487497 -0.364503250172884 
-0.364503250172884 -0.364503250172884 -0.364503250172884 -0.3552094978940171 -0.3552094978940171 -0.3552094978940171 -0.3552094978940171 -0.3448974717758524 -0.3448974717758524 
-0.3448974717758524 -0.3448974717758524 -0.3334972455175662 -0.3334972455175662 -0.3334972455175662 -0.3334972455175662 -0.3209383865637607 -0.3209383865637607 -0.3209383865637607 
-0.3209383865637607 -0.3071516766359828 -0.3071516766359828 -0.3071516766359828 -0.3071516766359828 -0.2920698917508924 -0.2920698917508924 -0.2920698917508924 -0.2920698917508924 
-0.2756267480477402 -0.2756267480477402 -0.2756267480477402 -0.2756267480477402 -0.2577524598556236 -0.2577524598556236 -0.2577524598556236 -0.2577524598556236 -0.2383631638064205 
-0.2383631638064205 -0.2383631638064205 -0.2383631638064205 -0.217339151945216 -0.217339151945216 -0.217339151945216 -0.217339151945216 -0.1944819153194174 -0.1944819153194174 
-0.1944819153194174 -0.1944819153194174 -0.1694279799904493 -0.1694279799904493 -0.1694279799904493 -0.1694279799904493 -0.1414631715877957 -0.1414631715877957 -0.1414631715877957 
-0.1414631715877957 -0.1090602534736315 -0.1090602534736315 -0.1090602534736315 -0.1090602534736315 -0.06839152524714015 -0.06839152524714015 -0.06839152524714015 -0.06839152524714015 
-0.005467428392320507 -0.005467428392320507 -0.005467428392320507 -0.005467428392320507 0.06272682882774713 0.06272682882774713 0.06272682882774713 0.06272682882774713 0.1046341172553159 
0.1046341172553159 0.1046341172553159 0.1046341172553159 0.1375878531355571 0.1375878531355571 0.1375878531355571 0.1375878531355571 0.1659978376618963 0.1659978376618963 
0.1659978376618963 0.1659978376618963 0.1915873170131182 0.1915873170131182 0.1915873170131182 0.1915873170131182 0.2151481651788041 0.2151481651788041 0.2151481651788041 
0.2151481651788041 0.2370657608749749 0.2370657608749749 0.2370657608749749 0.2370657608749749 0.2575289398042411 0.2575289398042411 0.2575289398042411 0.2575289398042411 
0.2766296670032963 0.2766296670032963 0.2766296670032963 0.2766296670032963 0.2944148836232136 0.2944148836232136 0.2944148836232136 0.2944148836232136 0.3109142783737858 
0.3109142783737858 0.3109142783737858 0.3109142783737858 0.3261547480371192 0.3261547480371192 0.3261547480371192 0.3261547480371192 0.3401671350420253 0.3401671350420253 
0.3401671350420253 0.3401671350420253 0.3529884226968172 0.3529884226968172 0.3529884226968172 0.3529884226968172 0.364661294767317 0.364661294767317 0.364661294767317 
0.364661294767317 0.3752322264006601 0.3752322264006601 0.3752322264006601 0.3752322264006601 0.3847488192103231 0.3847488192103231 0.3847488192103231 0.3847488192103231 
0.3932568068456592 0.3932568068456592 0.3932568068456592 0.3932568068456592 0.4007969753330939 0.4007969753330939 0.4007969753330939 0.4007969753330939 0.4074021271758304 
0.4074021271758304 0.4074021271758304 0.4074021271758304 0.4130941454025127 0.4130941454025127 0.4130941454025127 0.4130941454025127 0.4178811671092015 0.4178811671092015 
0.4178811671092015 0.4178811671092015 0.4206508536292011 0.4206508536292011 0.4206508536292011 0.4206508536292011 0.4245771276597772 0.4245771276597772 0.4245771276597772 
0.4245771276597772 0.4275130947082687 0.4275130947082687 0.4275130947082687 0.4275130947082687 0.4294036584072323 0.4294036584072323 0.4294036584072323 0.4294036584072323 
0.4301687372365838 0.4301687372365838 0.4301687372365838 0.4301687372365838 0.4296983664807363 0.4296983664807363 0.4296983664807363 0.4296983664807363 0.4278519792435174 
0.4278519792435174 0.4278519792435174 0.4278519792435174 0.424453076070994 0.424453076070994 0.424453076070994 0.424453076070994 0.4192853277382852 0.4192853277382852 
0.4192853277382852 0.4192853277382852 0.4120921022550981 0.4120921022550981 0.4120921022550981 0.4120921022550981 0.4025842030359552 0.4025842030359552 0.4025842030359552 
0.4025842030359552 0.3904670489645484 0.3904670489645484 0.3904670489645484 0.3904670489645484 0.3755059690328071 0.3755059690328071 0.3755059690328071 0.3755059690328071 
0.3576505329418685 0.3576505329418685 0.3576505329418685 0.3576505329418685 0.3372175886069468 0.3372175886069468 0.3372175886069468 0.3372175886069468 0.3150645396846856 
0.3150645396846856 0.3150645396846856 0.3150645396846856 0.2925849300371275 0.2925849300371275 0.2925849300371275 0.2925849300371275 0.2713506288339338 0.2713506288339338 
0.2713506288339338 0.2713506288339338 0.2524709028855035 0.2524709028855035 0.2524709028855035 0.2524709028855035 0.2360954306294335 0.2360954306294335 0.2360954306294335 
0.2360954306294335 0.2214464623313928 0.2214464623313928 0.2214464623313928 0.2214464623313928 0.2072663672569636 0.2072663672569636 0.2072663672569636 0.2072663672569636 
0.1922702479558821 0.1922702479558821 0.1922702479558821 0.1922702479558821 0.1753685306926788 0.1753685306926788 0.1753685306926788 0.1753685306926788 0.1556674993351818 
0.1556674993351818 0.1556674993351818 0.1556674993351818 0.1322841021973034 0.1322841021973034 0.1322841021973034 0.1322841021973034 0.1038515271342107 0.1038515271342107 
0.1038515271342107 0.1038515271342107 0.0670834472774398 0.0670834472774398 0.0670834472774398 0.0670834472774398 0.009772498957106555 0.009772498957106555 0.009772498957106555 
0.009772498957106555 -0.05753760981946654 -0.05753760981946654 -0.05753760981946654 -0.05753760981946654 -0.09708395213255239 -0.09708395213255239 -0.09708395213255239 -0.09708395213255239 
-0.1269563120867603 -0.1269563120867603 -0.1269563120867603 -0.1269563120867603 -0.1518712316036779 -0.1518712316036779 -0.1518712316036779 -0.1518712316036779 -0.1742346793719867 
-0.1742346793719867 -0.1742346793719867 -0.1742346793719867 -0.1956521272386128 -0.1956521272386128 -0.1956521272386128 -0.1956521272386128 -0.2171438144109892 -0.2171438144109892 
-0.2171438144109892 -0.2171438144109892 -0.2390994976882487 -0.2390994976882487 -0.2390994976882487 -0.2390994976882487 -0.26131656797138 -0.26131656797138 -0.26131656797138 
-0.26131656797138 -0.283209158895497 -0.283209158895497 -0.283209158895497 -0.283209158895497 -0.3040867813600355 -0.3040867813600355 -0.3040867813600355 -0.3040867813600355 
-0.3233660908934246 -0.3233660908934246 -0.3233660908934246 -0.3233660908934246 -0.3406633982128165 -0.3406633982128165 -0.3406633982128165 -0.3406633982128165 -0.3557946400677574 
-0.3557946400677574 -0.3557946400677574 -0.3557946400677574 -0.3687317198541571 -0.3687317198541571 -0.3687317198541571 -0.3687317198541571 -0.3795507688295266 -0.3795507688295266 
-0.3795507688295266 -0.3795507688295266 -0.3883887397575044 -0.3883887397575044 -0.3883887397575044 -0.3883887397575044 -0.3954122333356652 -0.3954122333356652 -0.3954122333356652 
-0.3954122333356652 -0.4007969753330938 -0.4007969753330938 -0.4007969753330938 -0.4007969753330938 -0.4047149883319916 -0.4047149883319916 -0.4047149883319916 -0.4047149883319916 
-0.4073268271639461 -0.4073268271639461 -0.4073268271639461 -0.4073268271639461 -0.408776997416855 -0.408776997416855 -0.408776997416855 -0.408776997416855 -0.4091913512902077 
-0.4091913512902077 -0.4091913512902077 -0.4091913512902077 -0.4086760554691902 -0.4086760554691902 -0.4086760554691902 -0.4086760554691902 -0.4073180897730211 -0.4073180897730211 
-0.4073180897730211 -0.4073180897730211 -0.4051836085090235 -0.4051836085090235 -0.4051836085090235 -0.4051836085090235 -0.4023183104121725 -0.4023183104121725 -0.4023183104121725 
-0.4023183104121725 -0.3987484393945212 -0.3987484393945212 -0.3987484393945212 -0.3987484393945212 -0.3944828890694578 -0.3944828890694578 -0.3944828890694578 -0.3944828890694578 
-0.389514324526364 -0.389514324526364 -0.389514324526364 -0.389514324526364 -0.3838203043148563 -0.3838203043148563 -0.3838203043148563 -0.3838203043148563 -0.3773649830414996 
-0.3773649830414996 -0.3773649830414996 -0.3773649830414996 -0.3701009383939786 -0.3701009383939786 -0.3701009383939786 -0.3701009383939786 -0.3619711167834672 -0.3619711167834672 
-0.3619711167834672 -0.3619711167834672 -0.3529108907239674 -0.3529108907239674 -0.3529108907239674 -0.3529108907239674 -0.342850200926288 -0.342850200926288 -0.342850200926288 
-0.342850200926288 -0.3317157154708309 -0.3317157154708309 -0.3317157154708309 -0.3317157154708309 -0.3194328645161642 -0.3194328645161642 -0.3194328645161642 -0.3194328645161642 
-0.3059274810106345 -0.3059274810106345 -0.3059274810106345 -0.3059274810106345 -0.2911265606213617 -0.2911265606213617 -0.2911265606213617 -0.2911265606213617 -0.2749572847522956 
-0.2749572847522956 -0.2749572847522956 -0.2749572847522956 -0.257342808701602 -0.257342808701602 -0.257342808701602 -0.257342808701602 -0.2381921522664028 -0.2381921522664028 
-0.2381921522664028 -0.2381921522664028 -0.21737926802843 -0.21737926802843 -0.21737926802843 -0.21737926802843 -0.1947015250683034 -0.1947015250683034 -0.1947015250683034 
-0.1947015250683034 -0.1697961035811384 -0.1697961035811384 -0.1697961035811384 -0.1697961035811384 -0.1419593600827604 -0.1419593600827604 -0.1419593600827604 -0.1419593600827604 
-0.109697249782144 -0.109697249782144 -0.109697249782144 -0.109697249782144 -0.06928443935461306 -0.06928443935461306 -0.06928443935461306 -0.06928443935461306 -0.007223389651883784 