Title = RSC/Post/Linear_Advection_2D/Sine_Wave_2D/Quad200/
FileType = Solution
Variables = q
Zone T = RSC/Post/Linear_Advection_2D/Sine_Wave_2D/Quad200/
ZoneType = FETriangle
Nodes = 160000
Elements = 80000
DataPacking = Block
StrandID = 1
SolutionTime = 0
0.0002467198171342217 0.0002467198171342217 0.0002467198171342217 0.0002467198171342217 0.0007399159687299981 0.0007399159687299981 0.0007399159687299981 0.0007399159687299981 0.001232381912595775 0.001232381912595775 
0.001232381912595775 0.001232381912595775 0.001723631644301092 0.001723631644301092 0.001723631644301092 0.001723631644301092 0.002213180359670055 0.002213180359670055 0.002213180359670055 
0.002213180359670055 0.002700544933224523 0.002700544933224523 0.002700544933224523 0.002700544933224523 0.003185244394970643 0.003185244394970643 0.003185244394970643 0.003185244394970643 
0.003666800405058142 0.003666800405058142 0.003666800405058142 0.003666800405058142 0.004144737725844027 0.004144737725844027 0.004144737725844027 0.004144737725844027 0.004618584690894752 
0.004618584690894752 0.004618584690894752 0.004618584690894752 0.005087873670464053 0.005087873670464053 0.005087873670464053 0.005087873670464053 0.005552141532987037 0.005552141532987037 
0.005552141532987037 0.005552141532987037 0.006010930102135134 0.006010930102135134 0.006010930102135134 0.006010930102135134 0.00646378660898081 0.00646378660898081 0.00646378660898081 
0.00646378660898081 0.006910264138825837 0.006910264138825837 0.006910264138825837 0.006910264138825837 0.007349922072252144 0.007349922072252144 0.007349922072252144 0.007349922072252144 
0.007782326519959981 0.007782326519959981 0.007782326519959981 0.007782326519959981 0.008207050750964284 0.008207050750964284 0.008207050750964284 0.008207050750964284 0.008623675613726633 
0.008623675613726633 0.008623675613726633 0.008623675613726633 0.009031789949807207 0.009031789949807207 0.009031789949807207 0.009031789949807207 0.009430990999628536 0.009430990999628536 
0.009430990999628536 0.009430990999628536 0.009820884799950575 0.009820884799950575 0.009820884799950575 0.009820884799950575 0.01020108657266485 0.01020108657266485 0.01020108657266485 
0.01020108657266485 0.01057122110452401 0.01057122110452401 0.01057122110452401 0.01057122110452401 0.01093092311743201 0.01093092311743201 0.01093092311743201 0.01093092311743201 
0.01127983762892943 0.01127983762892943 0.01127983762892943 0.01127983762892943 0.01161762030251841 0.01161762030251841 0.01161762030251841 0.01161762030251841 0.0119439377874811 
0.0119439377874811 0.0119439377874811 0.0119439377874811 0.01225846804785662 0.01225846804785662 0.01225846804785662 0.01225846804785662 0.01256090068025169 0.01256090068025169 
0.01256090068025169 0.01256090068025169 0.01285093722017127 0.01285093722017127 0.01285093722017127 0.01285093722017127 0.013128291436567 0.013128291436567 0.013128291436567 
0.013128291436567 0.01339268961431267 0.01339268961431267 0.01339268961431267 0.01339268961431267 0.01364387082432802 0.01364387082432802 0.01364387082432802 0.01364387082432802 
0.01388158718108425 0.01388158718108425 0.01388158718108425 0.01388158718108425 0.01410560408723708 0.01410560408723708 0.01410560408723708 0.01410560408723708 0.01431570046514602 
0.01431570046514602 0.01431570046514602 0.01431570046514602 0.01451166897505134 0.01451166897505134 0.01451166897505134 0.01451166897505134 0.0146933162196933 0.0146933162196933 
0.0146933162196933 0.0146933162196933 0.01486046293517199 0.01486046293517199 0.01486046293517199 0.01486046293517199 0.01501294416785909 0.01501294416785909 0.01501294416785909 
0.01501294416785909 0.01515060943718724 0.01515060943718724 0.01515060943718724 0.01515060943718724 0.01527332288415613 0.01527332288415613 0.01527332288415613 0.01527332288415613 
0.01538096340540897 0.01538096340540897 0.01538096340540897 0.01538096340540897 0.01547342477274689 0.01547342477274689 0.01547342477274689 0.01547342477274689 0.01555061573796332 
0.01555061573796332 0.01555061573796332 0.01555061573796332 0.01561246012289497 0.01561246012289497 0.01561246012289497 0.01561246012289497 0.01565889689460048 0.01565889689460048 
0.01565889689460048 0.01565889689460048 0.01568988022559255 0.01568988022559255 0.01568988022559255 0.01568988022559255 0.01570537953906415 0.01570537953906415 0.01570537953906415 
0.01570537953906415 0.01570537953906416 0.01570537953906416 0.01570537953906416 0.01570537953906416 0.01568988022559255 0.01568988022559255 0.01568988022559255 0.01568988022559255 
0.01565889689460048 0.01565889689460048 0.01565889689460048 0.01565889689460048 0.01561246012289497 0.01561246012289497 0.01561246012289497 0.01561246012289497 0.01555061573796332 
0.01555061573796332 0.01555061573796332 0.01555061573796332 0.01547342477274689 0.01547342477274689 0.01547342477274689 0.01547342477274689 0.01538096340540897 0.01538096340540897 
0.01538096340540897 0.01538096340540897 0.01527332288415613 0.01527332288415613 0.01527332288415613 0.01527332288415613 0.01515060943718724 0.01515060943718724 0.01515060943718724 
0.01515060943718724 0.01501294416785909 0.01501294416785909 0.01501294416785909 0.01501294416785909 0.01486046293517199 0.01486046293517199 0.01486046293517199 0.01486046293517199 
0.0146933162196933 0.0146933162196933 0.0146933162196933 0.0146933162196933 0.01451166897505133 0.01451166897505133 0.01451166897505133 0.01451166897505133 0.01431570046514602 
0.01431570046514602 0.01431570046514602 0.01431570046514602 0.01410560408723708 0.01410560408723708 0.01410560408723708 0.01410560408723708 0.01388158718108425 0.01388158718108425 
0.01388158718108425 0.01388158718108425 0.01364387082432802 0.01364387082432802 0.01364387082432802 0.01364387082432802 0.01339268961431267 0.01339268961431267 0.01339268961431267 
0.01339268961431267 0.01312829143656699 0.01312829143656699 0.01312829143656699 0.01312829143656699 0.01285093722017128 0.01285093722017128 0.01285093722017128 0.01285093722017128 
0.01256090068025169 0.01256090068025169 0.01256090068025169 0.01256090068025169 0.01225846804785662 0.01225846804785662 0.01225846804785662 0.01225846804785662 0.01194393778748109 
0.01194393778748109 0.01194393778748109 0.01194393778748109 0.01161762030251841 0.01161762030251841 0.01161762030251841 0.01161762030251841 0.01127983762892944 0.01127983762892944 
0.01127983762892944 0.01127983762892944 0.01093092311743201 0.01093092311743201 0.01093092311743201 0.01093092311743201 0.01057122110452402 0.01057122110452402 0.01057122110452402 
0.01057122110452402 0.01020108657266485 0.01020108657266485 0.01020108657266485 0.01020108657266485 0.009820884799950575 0.009820884799950575 0.009820884799950575 0.009820884799950575 
0.00943099099962854 0.00943099099962854 0.00943099099962854 0.00943099099962854 0.0090317899498072 0.0090317899498072 0.0090317899498072 0.0090317899498072 0.008623675613726635 
0.008623675613726635 0.008623675613726635 0.008623675613726635 0.008207050750964284 0.008207050750964284 0.008207050750964284 0.008207050750964284 0.007782326519959982 0.007782326519959982 
0.007782326519959982 0.007782326519959982 0.007349922072252141 0.007349922072252141 0.007349922072252141 0.007349922072252141 0.006910264138825838 0.006910264138825838 0.006910264138825838 
0.006910264138825838 0.006463786608980808 0.006463786608980808 0.006463786608980808 0.006463786608980808 0.006010930102135136 0.006010930102135136 0.006010930102135136 0.006010930102135136 
0.005552141532987042 0.005552141532987042 0.005552141532987042 0.005552141532987042 0.005087873670464046 0.005087873670464046 0.005087873670464046 0.005087873670464046 0.004618584690894748 
0.004618584690894748 0.004618584690894748 0.004618584690894748 0.004144737725844025 0.004144737725844025 0.004144737725844025 0.004144737725844025 0.003666800405058143 0.003666800405058143 
0.003666800405058143 0.003666800405058143 0.00318524439497064 0.00318524439497064 0.00318524439497064 0.00318524439497064 0.002700544933224531 0.002700544933224531 0.002700544933224531 
0.002700544933224531 0.002213180359670049 0.002213180359670049 0.002213180359670049 0.002213180359670049 0.001723631644301097 0.001723631644301097 0.001723631644301097 0.001723631644301097 
0.001232381912595784 0.001232381912595784 0.001232381912595784 0.001232381912595784 0.0007399159687300025 0.0007399159687300025 0.0007399159687300025 0.0007399159687300025 0.0002467198171342152 
0.0002467198171342152 0.0002467198171342152 0.0002467198171342152 -0.0002467198171342113 -0.0002467198171342113 -0.0002467198171342113 -0.0002467198171342113 -0.0007399159687299988 -0.0007399159687299988 
-0.0007399159687299988 -0.0007399159687299988 -0.001232381912595766 -0.001232381912595766 -0.001232381912595766 -0.001232381912595766 -0.001723631644301087 -0.001723631644301087 -0.001723631644301087 
-0.001723631644301087 -0.002213180359670047 -0.002213180359670047 -0.002213180359670047 -0.002213180359670047 -0.002700544933224527 -0.002700544933224527 -0.002700544933224527 -0.002700544933224527 
-0.003185244394970636 -0.003185244394970636 -0.003185244394970636 -0.003185244394970636 -0.003666800405058146 -0.003666800405058146 -0.003666800405058146 -0.003666800405058146 -0.004144737725844021 
-0.004144737725844021 -0.004144737725844021 -0.004144737725844021 -0.004618584690894757 -0.004618584690894757 -0.004618584690894757 -0.004618584690894757 -0.005087873670464047 -0.005087873670464047 
-0.005087873670464047 -0.005087873670464047 -0.005552141532987037 -0.005552141532987037 -0.005552141532987037 -0.005552141532987037 -0.006010930102135132 -0.006010930102135132 -0.006010930102135132 
-0.006010930102135132 -0.006463786608980818 -0.006463786608980818 -0.006463786608980818 -0.006463786608980818 -0.006910264138825835 -0.006910264138825835 -0.006910264138825835 -0.006910264138825835 
-0.007349922072252136 -0.007349922072252136 -0.007349922072252136 -0.007349922072252136 -0.007782326519959979 -0.007782326519959979 -0.007782326519959979 -0.007782326519959979 -0.008207050750964274 
-0.008207050750964274 -0.008207050750964274 -0.008207050750964274 -0.008623675613726629 -0.008623675613726629 -0.008623675613726629 -0.008623675613726629 -0.009031789949807195 -0.009031789949807195 
-0.009031789949807195 -0.009031789949807195 -0.009430990999628535 -0.009430990999628535 -0.009430990999628535 -0.009430990999628535 -0.009820884799950564 -0.009820884799950564 -0.009820884799950564 
-0.009820884799950564 -0.01020108657266485 -0.01020108657266485 -0.01020108657266485 -0.01020108657266485 -0.01057122110452401 -0.01057122110452401 -0.01057122110452401 -0.01057122110452401 
-0.01093092311743201 -0.01093092311743201 -0.01093092311743201 -0.01093092311743201 -0.01127983762892942 -0.01127983762892942 -0.01127983762892942 -0.01127983762892942 -0.0116176203025184 
-0.0116176203025184 -0.0116176203025184 -0.0116176203025184 -0.01194393778748108 -0.01194393778748108 -0.01194393778748108 -0.01194393778748108 -0.01225846804785661 -0.01225846804785661 
-0.01225846804785661 -0.01225846804785661 -0.01256090068025168 -0.01256090068025168 -0.01256090068025168 -0.01256090068025168 -0.01285093722017127 -0.01285093722017127 -0.01285093722017127 
-0.01285093722017127 -0.01312829143656699 -0.01312829143656699 -0.01312829143656699 -0.01312829143656699 -0.01339268961431266 -0.01339268961431266 -0.01339268961431266 -0.01339268961431266 
-0.01364387082432801 -0.01364387082432801 -0.01364387082432801 -0.01364387082432801 -0.01388158718108424 -0.01388158718108424 -0.01388158718108424 -0.01388158718108424 -0.01410560408723707 
-0.01410560408723707 -0.01410560408723707 -0.01410560408723707 -0.01431570046514602 -0.01431570046514602 -0.01431570046514602 -0.01431570046514602 -0.01451166897505132 -0.01451166897505132 
-0.01451166897505132 -0.01451166897505132 -0.01469331621969329 -0.01469331621969329 -0.01469331621969329 -0.01469331621969329 -0.01486046293517198 -0.01486046293517198 -0.01486046293517198 
-0.01486046293517198 -0.01501294416785908 -0.01501294416785908 -0.01501294416785908 -0.01501294416785908 -0.01515060943718723 -0.01515060943718723 -0.01515060943718723 -0.01515060943718723 
-0.01527332288415612 -0.01527332288415612 -0.01527332288415612 -0.01527332288415612 -0.01538096340540896 -0.01538096340540896 -0.01538096340540896 -0.01538096340540896 -0.01547342477274688 
-0.01547342477274688 -0.01547342477274688 -0.01547342477274688 -0.01555061573796331 -0.01555061573796331 -0.01555061573796331 -0.01555061573796331 -0.01561246012289496 -0.01561246012289496 
-0.01561246012289496 -0.01561246012289496 -0.01565889689460047 -0.01565889689460047 -0.01565889689460047 -0.01565889689460047 -0.01568988022559254 -0.01568988022559254 -0.01568988022559254 
-0.01568988022559254 -0.01570537953906415 -0.01570537953906415 -0.01570537953906415 -0.01570537953906415 -0.01570537953906415 -0.01570537953906415 -0.01570537953906415 -0.01570537953906415 
-0.01568988022559254 -0.01568988022559254 -0.01568988022559254 -0.01568988022559254 -0.01565889689460047 -0.01565889689460047 -0.01565889689460047 -0.01565889689460047 -0.01561246012289496 
-0.01561246012289496 -0.01561246012289496 -0.01561246012289496 -0.01555061573796331 -0.01555061573796331 -0.01555061573796331 -0.01555061573796331 -0.01547342477274688 -0.01547342477274688 
-0.01547342477274688 -0.01547342477274688 -0.01538096340540896 -0.01538096340540896 -0.01538096340540896 -0.01538096340540896 -0.01527332288415612 -0.01527332288415612 -0.01527332288415612 
-0.01527332288415612 -0.01515060943718723 -0.01515060943718723 -0.01515060943718723 -0.01515060943718723 -0.01501294416785908 -0.01501294416785908 -0.01501294416785908 -0.01501294416785908 
-0.01486046293517198 -0.01486046293517198 -0.01486046293517198 -0.01486046293517198 -0.01469331621969329 -0.01469331621969329 -0.01469331621969329 -0.01469331621969329 -0.01451166897505132 
-0.01451166897505132 -0.01451166897505132 -0.01451166897505132 -0.01431570046514602 -0.01431570046514602 -0.01431570046514602 -0.01431570046514602 -0.01410560408723707 -0.01410560408723707 
-0.01410560408723707 -0.01410560408723707 -0.01388158718108424 -0.01388158718108424 -0.01388158718108424 -0.01388158718108424 -0.01364387082432802 -0.01364387082432802 -0.01364387082432802 
-0.01364387082432802 -0.01339268961431266 -0.01339268961431266 -0.01339268961431266 -0.01339268961431266 -0.01312829143656699 -0.01312829143656699 -0.01312829143656699 -0.01312829143656699 
-0.01285093722017127 -0.01285093722017127 -0.01285093722017127 -0.01285093722017127 -0.01256090068025168 -0.01256090068025168 -0.01256090068025168 -0.01256090068025168 -0.01225846804785661 
-0.01225846804785661 -0.01225846804785661 -0.01225846804785661 -0.01194393778748109 -0.01194393778748109 -0.01194393778748109 -0.01194393778748109 -0.01161762030251841 -0.01161762030251841 
-0.01161762030251841 -0.01161762030251841 -0.01127983762892943 -0.01127983762892943 -0.01127983762892943 -0.01127983762892943 -0.010930923117432 -0.010930923117432 -0.010930923117432 
-0.010930923117432 -0.010571221104524 -0.010571221104524 -0.010571221104524 -0.010571221104524 -0.01020108657266485 -0.01020108657266485 -0.01020108657266485 -0.01020108657266485 
-0.009820884799950568 -0.009820884799950568 -0.009820884799950568 -0.009820884799950568 -0.009430990999628531 -0.009430990999628531 -0.009430990999628531 -0.009430990999628531 -0.009031789949807193 
-0.009031789949807193 -0.009031789949807193 -0.009031789949807193 -0.008623675613726633 -0.008623675613726633 -0.008623675613726633 -0.008623675613726633 -0.008207050750964276 -0.008207050750964276 
-0.008207050750964276 -0.008207050750964276 -0.007782326519959974 -0.007782326519959974 -0.007782326519959974 -0.007782326519959974 -0.007349922072252127 -0.007349922072252127 -0.007349922072252127 
-0.007349922072252127 -0.006910264138825826 -0.006910264138825826 -0.006910264138825826 -0.006910264138825826 -0.006463786608980802 -0.006463786608980802 -0.006463786608980802 -0.006463786608980802 
-0.006010930102135141 -0.006010930102135141 -0.006010930102135141 -0.006010930102135141 -0.005552141532987034 -0.005552141532987034 -0.005552141532987034 -0.005552141532987034 -0.005087873670464052 
-0.005087873670464052 -0.005087873670464052 -0.005087873670464052 -0.004618584690894741 -0.004618584690894741 -0.004618584690894741 -0.004618584690894741 -0.004144737725844031 -0.004144737725844031 
-0.004144737725844031 -0.004144737725844031 -0.00366680040505815 -0.00366680040505815 -0.00366680040505815 -0.00366680040505815 -0.003185244394970641 -0.003185244394970641 -0.003185244394970641 
-0.003185244394970641 -0.002700544933224539 -0.002700544933224539 -0.002700544933224539 -0.002700544933224539 -0.002213180359670058 -0.002213180359670058 -0.002213180359670058 -0.002213180359670058 
-0.001723631644301099 -0.001723631644301099 -0.001723631644301099 -0.001723631644301099 -0.001232381912595771 -0.001232381912595771 -0.001232381912595771 -0.001232381912595771 -0.0007399159687300111 
-0.0007399159687300111 -0.0007399159687300111 -0.0007399159687300111 -0.000246719817134224 -0.000246719817134224 -0.000246719817134224 -0.000246719817134224 0.0007399159687299981 0.0007399159687299981 
0.0007399159687299981 0.0007399159687299981 0.002219017698459996 0.002219017698459996 0.002219017698459996 0.002219017698459996 0.003695929525626866 0.003695929525626866 0.003695929525626866 
0.003695929525626866 0.005169193916566923 0.005169193916566923 0.005169193916566923 0.005169193916566923 0.006637356937195671 0.006637356937195671 0.006637356937195671 0.006637356937195671 
0.008098969687865221 0.008098969687865221 0.008098969687865221 0.008098969687865221 0.009552589733253312 0.009552589733253312 0.009552589733253312 0.009552589733253312 0.01099678252587281 
0.01099678252587281 0.01099678252587281 0.01099678252587281 0.01243012282179692 0.01243012282179692 0.01243012282179692 0.01243012282179692 0.01385119608720283 0.01385119608720283 
0.01385119608720283 0.01385119608720283 0.01525859989434585 0.01525859989434585 0.01525859989434585 0.01525859989434585 0.01665094530558623 0.01665094530558623 0.01665094530558623 
0.01665094530558623 0.01802685824410299 0.01802685824410299 0.01802685824410299 0.01802685824410299 0.01938498084994179 0.01938498084994179 0.01938498084994179 0.01938498084994179 
0.02072397282005879 0.02072397282005879 0.02072397282005879 0.02072397282005879 0.02204251273103797 0.02204251273103797 0.02204251273103797 0.02204251273103797 0.02333929934317642 
0.02333929934317642 0.02333929934317642 0.02333929934317642 0.0246130528846509 0.0246130528846509 0.0246130528846509 0.0246130528846509 0.02586251631449813 0.02586251631449813 
0.02586251631449813 0.02586251631449813 0.02708645656316238 0.02708645656316238 0.02708645656316238 0.02708645656316238 0.02828366574938632 0.02828366574938632 0.02828366574938632 
0.02828366574938632 0.02945296237224397 0.02945296237224397 0.02945296237224397 0.02945296237224397 0.03059319247713945 0.03059319247713945 0.03059319247713945 0.03059319247713945 
0.03170323079462087 0.03170323079462087 0.03170323079462087 0.03170323079462087 0.03278198185088546 0.03278198185088546 0.03278198185088546 0.03278198185088546 0.03382838104887985 
0.03382838104887985 0.03382838104887985 0.03382838104887985 0.03484139571892895 0.03484139571892895 0.03484139571892895 0.03484139571892895 0.03582002613785613 0.03582002613785613 
0.03582002613785613 0.03582002613785613 0.0367633065155894 0.0367633065155894 0.0367633065155894 0.0367633065155894 0.03767030594827958 0.03767030594827958 0.03767030594827958 
0.03767030594827958 0.03854012933698997 0.03854012933698997 0.03854012933698997 0.03854012933698997 0.03937191827105095 0.03937191827105095 0.03937191827105095 0.03937191827105095 
0.0401648518752077 0.0401648518752077 0.0401648518752077 0.0401648518752077 0.04091814761972495 0.04091814761972495 0.04091814761972495 0.04091814761972495 0.04163106209264936 
0.04163106209264936 0.04163106209264936 0.04163106209264936 0.04230289173346736 0.04230289173346736 0.04230289173346736 0.04230289173346736 0.04293297352743443 0.04293297352743443 
0.04293297352743443 0.04293297352743443 0.04352068565989066 0.04352068565989066 0.04352068565989066 0.04352068565989066 0.04406544812991663 0.04406544812991663 0.04406544812991663 
0.04406544812991663 0.04456672332272439 0.04456672332272439 0.04456672332272439 0.04456672332272439 0.04502401654021831 0.04502401654021831 0.04502401654021831 0.04502401654021831 
0.04543687648920246 0.04543687648920246 0.04543687648920246 0.04543687648920246 0.04580489572675234 0.04580489572675234 0.04580489572675234 0.04580489572675234 0.046127711062312 
0.046127711062312 0.046127711062312 0.046127711062312 0.04640500391611919 0.04640500391611919 0.04640500391611919 0.04640500391611919 0.04663650063360519 0.04663650063360519 
0.04663650063360519 0.04663650063360519 0.04682197275545879 0.04682197275545879 0.04682197275545879 0.04682197275545879 0.04696123724308801 0.04696123724308801 0.04696123724308801 
0.04696123724308801 0.04705415665925718 0.04705415665925718 0.04705415665925718 0.04705415665925718 0.04710063930372087 0.04710063930372087 0.04710063930372087 0.04710063930372087 
0.04710063930372087 0.04710063930372087 0.04710063930372087 0.04710063930372087 0.0470541566592572 0.0470541566592572 0.0470541566592572 0.0470541566592572 0.04696123724308801 
0.04696123724308801 0.04696123724308801 0.04696123724308801 0.04682197275545876 0.04682197275545876 0.04682197275545876 0.04682197275545876 0.04663650063360519 0.04663650063360519 
0.04663650063360519 0.04663650063360519 0.04640500391611917 0.04640500391611917 0.04640500391611917 0.04640500391611917 0.046127711062312 0.046127711062312 0.046127711062312 
0.046127711062312 0.04580489572675233 0.04580489572675233 0.04580489572675233 0.04580489572675233 0.04543687648920247 0.04543687648920247 0.04543687648920247 0.04543687648920247 
0.04502401654021834 0.04502401654021834 0.04502401654021834 0.04502401654021834 0.04456672332272439 0.04456672332272439 0.04456672332272439 0.04456672332272439 0.04406544812991663 
0.04406544812991663 0.04406544812991663 0.04406544812991663 0.04352068565989067 0.04352068565989067 0.04352068565989067 0.04352068565989067 0.04293297352743446 0.04293297352743446 
0.04293297352743446 0.04293297352743446 0.04230289173346736 0.04230289173346736 0.04230289173346736 0.04230289173346736 0.04163106209264936 0.04163106209264936 0.04163106209264936 
0.04163106209264936 0.04091814761972495 0.04091814761972495 0.04091814761972495 0.04091814761972495 0.0401648518752077 0.0401648518752077 0.0401648518752077 0.0401648518752077 
0.03937191827105094 0.03937191827105094 0.03937191827105094 0.03937191827105094 0.03854012933698998 0.03854012933698998 0.03854012933698998 0.03854012933698998 0.03767030594827958 
0.03767030594827958 0.03767030594827958 0.03767030594827958 0.03676330651558941 0.03676330651558941 0.03676330651558941 0.03676330651558941 0.03582002613785611 0.03582002613785611 
0.03582002613785611 0.03582002613785611 0.03484139571892893 0.03484139571892893 0.03484139571892893 0.03484139571892893 0.03382838104887984 0.03382838104887984 0.03382838104887984 
0.03382838104887984 0.03278198185088548 0.03278198185088548 0.03278198185088548 0.03278198185088548 0.0317032307946209 0.0317032307946209 0.0317032307946209 0.0317032307946209 
0.03059319247713945 0.03059319247713945 0.03059319247713945 0.03059319247713945 0.02945296237224398 0.02945296237224398 0.02945296237224398 0.02945296237224398 0.02828366574938634 
0.02828366574938634 0.02828366574938634 0.02828366574938634 0.02708645656316237 0.02708645656316237 0.02708645656316237 0.02708645656316237 0.02586251631449812 0.02586251631449812 
0.02586251631449812 0.02586251631449812 0.0246130528846509 0.0246130528846509 0.0246130528846509 0.0246130528846509 0.02333929934317642 0.02333929934317642 0.02333929934317642 
0.02333929934317642 0.02204251273103796 0.02204251273103796 0.02204251273103796 0.02204251273103796 0.0207239728200588 0.0207239728200588 0.0207239728200588 0.0207239728200588 
0.01938498084994178 0.01938498084994178 0.01938498084994178 0.01938498084994178 0.01802685824410299 0.01802685824410299 0.01802685824410299 0.01802685824410299 0.01665094530558624 
0.01665094530558624 0.01665094530558624 0.01665094530558624 0.01525859989434585 0.01525859989434585 0.01525859989434585 0.01525859989434585 0.01385119608720282 0.01385119608720282 
0.01385119608720282 0.01385119608720282 0.01243012282179692 0.01243012282179692 0.01243012282179692 0.01243012282179692 0.01099678252587282 0.01099678252587282 0.01099678252587282 
0.01099678252587282 0.009552589733253304 0.009552589733253304 0.009552589733253304 0.009552589733253304 0.008098969687865245 0.008098969687865245 0.008098969687865245 0.008098969687865245 
0.00663735693719566 0.00663735693719566 0.00663735693719566 0.00663735693719566 0.00516919391656694 0.00516919391656694 0.00516919391656694 0.00516919391656694 0.003695929525626893 
0.003695929525626893 0.003695929525626893 0.003695929525626893 0.002219017698460009 0.002219017698460009 0.002219017698460009 0.002219017698460009 0.0007399159687299788 0.0007399159687299788 
0.0007399159687299788 0.0007399159687299788 -0.0007399159687299672 -0.0007399159687299672 -0.0007399159687299672 -0.0007399159687299672 -0.002219017698459998 -0.002219017698459998 -0.002219017698459998 
-0.002219017698459998 -0.003695929525626839 -0.003695929525626839 -0.003695929525626839 -0.003695929525626839 -0.005169193916566908 -0.005169193916566908 -0.005169193916566908 -0.005169193916566908 
-0.00663735693719565 -0.00663735693719565 -0.00663735693719565 -0.00663735693719565 -0.008098969687865229 -0.008098969687865229 -0.008098969687865229 -0.008098969687865229 -0.009552589733253292 
-0.009552589733253292 -0.009552589733253292 -0.009552589733253292 -0.01099678252587282 -0.01099678252587282 -0.01099678252587282 -0.01099678252587282 -0.01243012282179691 -0.01243012282179691 
-0.01243012282179691 -0.01243012282179691 -0.01385119608720285 -0.01385119608720285 -0.01385119608720285 -0.01385119608720285 -0.01525859989434583 -0.01525859989434583 -0.01525859989434583 
-0.01525859989434583 -0.01665094530558619 -0.01665094530558619 -0.01665094530558619 -0.01665094530558619 -0.01802685824410297 -0.01802685824410297 -0.01802685824410297 -0.01802685824410297 
-0.01938498084994181 -0.01938498084994181 -0.01938498084994181 -0.01938498084994181 -0.02072397282005878 -0.02072397282005878 -0.02072397282005878 -0.02072397282005878 -0.02204251273103792 
-0.02204251273103792 -0.02204251273103792 -0.02204251273103792 -0.02333929934317637 -0.02333929934317637 -0.02333929934317637 -0.02333929934317637 -0.02461305288465087 -0.02461305288465087 
-0.02461305288465087 -0.02461305288465087 -0.02586251631449811 -0.02586251631449811 -0.02586251631449811 -0.02586251631449811 -0.02708645656316234 -0.02708645656316234 -0.02708645656316234 
-0.02708645656316234 -0.02828366574938631 -0.02828366574938631 -0.02828366574938631 -0.02828366574938631 -0.02945296237224393 -0.02945296237224393 -0.02945296237224393 -0.02945296237224393 
-0.03059319247713944 -0.03059319247713944 -0.03059319247713944 -0.03059319247713944 -0.03170323079462087 -0.03170323079462087 -0.03170323079462087 -0.03170323079462087 -0.03278198185088545 
-0.03278198185088545 -0.03278198185088545 -0.03278198185088545 -0.03382838104887981 -0.03382838104887981 -0.03382838104887981 -0.03382838104887981 -0.03484139571892891 -0.03484139571892891 
-0.03484139571892891 -0.03484139571892891 -0.03582002613785611 -0.03582002613785611 -0.03582002613785611 -0.03582002613785611 -0.03676330651558939 -0.03676330651558939 -0.03676330651558939 
-0.03676330651558939 -0.03767030594827956 -0.03767030594827956 -0.03767030594827956 -0.03767030594827956 -0.03854012933698996 -0.03854012933698996 -0.03854012933698996 -0.03854012933698996 
-0.03937191827105092 -0.03937191827105092 -0.03937191827105092 -0.03937191827105092 -0.04016485187520768 -0.04016485187520768 -0.04016485187520768 -0.04016485187520768 -0.04091814761972493 
-0.04091814761972493 -0.04091814761972493 -0.04091814761972493 -0.04163106209264932 -0.04163106209264932 -0.04163106209264932 -0.04163106209264932 -0.04230289173346734 -0.04230289173346734 
-0.04230289173346734 -0.04230289173346734 -0.04293297352743444 -0.04293297352743444 -0.04293297352743444 -0.04293297352743444 -0.04352068565989063 -0.04352068565989063 -0.04352068565989063 
-0.04352068565989063 -0.04406544812991659 -0.04406544812991659 -0.04406544812991659 -0.04406544812991659 -0.04456672332272436 -0.04456672332272436 -0.04456672332272436 -0.04456672332272436 
-0.04502401654021831 -0.04502401654021831 -0.04502401654021831 -0.04502401654021831 -0.04543687648920244 -0.04543687648920244 -0.04543687648920244 -0.04543687648920244 -0.04580489572675232 
-0.04580489572675232 -0.04580489572675232 -0.04580489572675232 -0.04612771106231197 -0.04612771106231197 -0.04612771106231197 -0.04612771106231197 -0.04640500391611916 -0.04640500391611916 
-0.04640500391611916 -0.04640500391611916 -0.04663650063360517 -0.04663650063360517 -0.04663650063360517 -0.04663650063360517 -0.04682197275545875 -0.04682197275545875 -0.04682197275545875 
-0.04682197275545875 -0.04696123724308798 -0.04696123724308798 -0.04696123724308798 -0.04696123724308798 -0.04705415665925717 -0.04705415665925717 -0.04705415665925717 -0.04705415665925717 
-0.04710063930372085 -0.04710063930372085 -0.04710063930372085 -0.04710063930372085 -0.04710063930372085 -0.04710063930372085 -0.04710063930372085 -0.04710063930372085 -0.04705415665925717 
-0.04705415665925717 -0.04705415665925717 -0.04705415665925717 -0.04696123724308799 -0.04696123724308799 -0.04696123724308799 -0.04696123724308799 -0.04682197275545876 -0.04682197275545876 
-0.04682197275545876 -0.04682197275545876 -0.04663650063360517 -0.04663650063360517 -0.04663650063360517 -0.04663650063360517 -0.04640500391611917 -0.04640500391611917 -0.04640500391611917 