Title = Result/Post/Linear_Advection_2D/Sine_Wave_2D/Quad10/
FileType = Solution
Variables = q
Zone T = Result/Post/Linear_Advection_2D/Sine_Wave_2D/Quad10/
ZoneType = FETriangle
Nodes = 400
Elements = 200
DataPacking = Block
StrandID = 2
SolutionTime = 2
0.002051850410360113 0.002051850410360113 0.002051850410360113 0.002051850410360113 0.002079824009459755 0.002079824009459755 0.002079824009459755 0.002079824009459755 0.001313375527563867 0.001313375527563867 
0.001313375527563867 0.001313375527563867 4.526223413091804e-05 4.526223413091804e-05 4.526223413091804e-05 4.526223413091804e-05 -0.001240139694333272 -0.001240139694333272 -0.001240139694333272 
-0.001240139694333272 -0.002051850410360045 -0.002051850410360045 -0.002051850410360045 -0.002051850410360045 -0.002079824009459687 -0.002079824009459687 -0.002079824009459687 -0.002079824009459687 
-0.001313375527563795 -0.001313375527563795 -0.001313375527563795 -0.001313375527563795 -4.52622341308484e-05 -4.52622341308484e-05 -4.52622341308484e-05 -4.52622341308484e-05 0.001240139694333341 
0.001240139694333341 0.001240139694333341 0.001240139694333341 0.002839073113664592 0.002839073113664592 0.002839073113664592 0.002839073113664592 0.002964478136876786 0.002964478136876786 
0.002964478136876786 0.002964478136876786 0.001957553270708026 0.001957553270708026 0.001957553270708026 0.001957553270708026 0.0002029095899173343 0.0002029095899173343 0.0002029095899173343 
0.0002029095899173343 -0.001629238657578463 -0.001629238657578463 -0.001629238657578463 -0.001629238657578463 -0.002839073113664525 -0.002839073113664525 -0.002839073113664525 -0.002839073113664525 
-0.002964478136876717 -0.002964478136876717 -0.002964478136876717 -0.002964478136876717 -0.001957553270707957 -0.001957553270707957 -0.001957553270707957 -0.001957553270707957 -0.000202909589917267 
-0.000202909589917267 -0.000202909589917267 -0.000202909589917267 0.001629238657578529 0.001629238657578529 0.001629238657578529 0.001629238657578529 0.0025418663840952 0.0025418663840952 
0.0025418663840952 0.0025418663840952 0.002716802374912859 0.002716802374912859 0.002716802374912859 0.002716802374912859 0.001854012199230254 0.001854012199230254 0.001854012199230254 
0.001854012199230254 0.0002830523789986444 0.0002830523789986444 0.0002830523789986444 0.0002830523789986444 -0.001396023829413919 -0.001396023829413919 -0.001396023829413919 -0.001396023829413919 
-0.002541866384095138 -0.002541866384095138 -0.002541866384095138 -0.002541866384095138 -0.002716802374912796 -0.002716802374912796 -0.002716802374912796 -0.002716802374912796 -0.00185401219923019 
-0.00185401219923019 -0.00185401219923019 -0.00185401219923019 -0.0002830523789985813 -0.0002830523789985813 -0.0002830523789985813 -0.0002830523789985813 0.001396023829413982 0.001396023829413982 
0.001396023829413982 0.001396023829413982 0.001273753090662248 0.001273753090662248 0.001273753090662248 0.001273753090662248 0.001431400446448665 0.001431400446448665 0.001431400446448665 
0.001431400446448665 0.001042301483203478 0.001042301483203478 0.001042301483203478 0.001042301483203478 0.0002550787798989995 0.0002550787798989995 0.0002550787798989995 0.0002550787798989995 
-0.000629575347518032 -0.000629575347518032 -0.000629575347518032 -0.000629575347518032 -0.001273753090662192 -0.001273753090662192 -0.001273753090662192 -0.001273753090662192 -0.001431400446448609 
-0.001431400446448609 -0.001431400446448609 -0.001431400446448609 -0.001042301483203421 -0.001042301483203421 -0.001042301483203421 -0.001042301483203421 -0.0002550787798989432 -0.0002550787798989432 
-0.0002550787798989432 -0.0002550787798989432 0.0006295753475180887 0.0006295753475180887 0.0006295753475180887 0.0006295753475180887 -0.0004808905901284469 -0.0004808905901284469 -0.0004808905901284469 
-0.0004808905901284469 -0.0004007478010471338 -0.0004007478010471338 -0.0004007478010471338 -0.0004007478010471338 -0.0001675329728825871 -0.0001675329728825871 -0.0001675329728825871 -0.0001675329728825871 
0.0001296737566868028 0.0001296737566868028 0.0001296737566868028 0.0001296737566868028 0.0003773495186507278 0.0003773495186507278 0.0003773495186507278 0.0003773495186507278 0.0004808905901284966 
0.0004808905901284966 0.0004808905901284966 0.0004808905901284966 0.0004007478010471832 0.0004007478010471832 0.0004007478010471832 0.0004007478010471832 0.0001675329728826358 0.0001675329728826358 
0.0001675329728826358 0.0001675329728826358 -0.000129673756686754 -0.000129673756686754 -0.000129673756686754 -0.000129673756686754 -0.0003773495186506786 -0.0003773495186506786 -0.0003773495186506786 
-0.0003773495186506786 -0.002051850410360061 -0.002051850410360061 -0.002051850410360061 -0.002051850410360061 -0.0020798240094597 -0.0020798240094597 -0.0020798240094597 -0.0020798240094597 
-0.001313375527563808 -0.001313375527563808 -0.001313375527563808 -0.001313375527563808 -4.526223413085795e-05 -4.526223413085795e-05 -4.526223413085795e-05 -4.526223413085795e-05 0.001240139694333334 
0.001240139694333334 0.001240139694333334 0.001240139694333334 0.002051850410360105 0.002051850410360105 0.002051850410360105 0.002051850410360105 0.002079824009459745 0.002079824009459745 
0.002079824009459745 0.002079824009459745 0.001313375527563852 0.001313375527563852 0.001313375527563852 0.001313375527563852 4.526223413090023e-05 4.526223413090023e-05 4.526223413090023e-05 
4.526223413090023e-05 -0.00124013969433329 -0.00124013969433329 -0.00124013969433329 -0.00124013969433329 -0.002839073113664539 -0.002839073113664539 -0.002839073113664539 -0.002839073113664539 
-0.002964478136876732 -0.002964478136876732 -0.002964478136876732 -0.002964478136876732 -0.001957553270707966 -0.001957553270707966 -0.001957553270707966 -0.001957553270707966 -0.0002029095899172726 
-0.0002029095899172726 -0.0002029095899172726 -0.0002029095899172726 0.001629238657578522 0.001629238657578522 0.001629238657578522 0.001629238657578522 0.002839073113664584 0.002839073113664584 
0.002839073113664584 0.002839073113664584 0.002964478136876776 0.002964478136876776 0.002964478136876776 0.002964478136876776 0.001957553270708011 0.001957553270708011 0.001957553270708011 
0.001957553270708011 0.000202909589917318 0.000202909589917318 0.000202909589917318 0.000202909589917318 -0.001629238657578477 -0.001629238657578477 -0.001629238657578477 -0.001629238657578477 
-0.002541866384095147 -0.002541866384095147 -0.002541866384095147 -0.002541866384095147 -0.002716802374912804 -0.002716802374912804 -0.002716802374912804 -0.002716802374912804 -0.001854012199230194 
-0.001854012199230194 -0.001854012199230194 -0.001854012199230194 -0.0002830523789985865 -0.0002830523789985865 -0.0002830523789985865 -0.0002830523789985865 0.001396023829413979 0.001396023829413979 
0.001396023829413979 0.001396023829413979 0.002541866384095196 0.002541866384095196 0.002541866384095196 0.002541866384095196 0.002716802374912852 0.002716802374912852 0.002716802374912852 
0.002716802374912852 0.001854012199230243 0.001854012199230243 0.001854012199230243 0.001854012199230243 0.0002830523789986314 0.0002830523789986314 0.0002830523789986314 0.0002830523789986314 
-0.001396023829413932 -0.001396023829413932 -0.001396023829413932 -0.001396023829413932 -0.001273753090662194 -0.001273753090662194 -0.001273753090662194 -0.001273753090662194 -0.001431400446448609 
-0.001431400446448609 -0.001431400446448609 -0.001431400446448609 -0.001042301483203418 -0.001042301483203418 -0.001042301483203418 -0.001042301483203418 -0.0002550787798989406 -0.0002550787798989406 
-0.0002550787798989406 -0.0002550787798989406 0.0006295753475180896 0.0006295753475180896 0.0006295753475180896 0.0006295753475180896 0.001273753090662248 0.001273753090662248 0.001273753090662248 
0.001273753090662248 0.001431400446448662 0.001431400446448662 0.001431400446448662 0.001431400446448662 0.001042301483203473 0.001042301483203473 0.001042301483203473 0.001042301483203473 
0.0002550787798989939 0.0002550787798989939 0.0002550787798989939 0.0002550787798989939 -0.0006295753475180357 -0.0006295753475180357 -0.0006295753475180357 -0.0006295753475180357 0.0004808905901285005 
0.0004808905901285005 0.0004808905901285005 0.0004808905901285005 0.0004007478010471924 0.0004007478010471924 0.0004007478010471924 0.0004007478010471924 0.0001675329728826471 0.0001675329728826471 
0.0001675329728826471 0.0001675329728826471 -0.0001296737566867423 -0.0001296737566867423 -0.0001296737566867423 -0.0001296737566867423 -0.0003773495186506648 -0.0003773495186506648 -0.0003773495186506648 
-0.0003773495186506648 -0.0004808905901284386 -0.0004808905901284386 -0.0004808905901284386 -0.0004808905901284386 -0.0004007478010471272 -0.0004007478010471272 -0.0004007478010471272 -0.0004007478010471272 
-0.0001675329728825816 -0.0001675329728825816 -0.0001675329728825816 -0.0001675329728825816 0.0001296737566868054 0.0001296737566868054 0.0001296737566868054 0.0001296737566868054 0.0003773495186507298 
0.0003773495186507298 0.0003773495186507298 0.0003773495186507298 