Title = Triangle150
FileType = Solution
Variables = q
Zone T = Triangle150
ZoneType = FETriangle
Nodes = 212082
Elements = 70694
DataPacking = Block
StrandID = 19
SolutionTime = 1.8
0.1403827667989765 0.1403827667989765 0.1403827667989765 0.1514617343007972 0.1514617343007972 0.1514617343007972 0.1320322231056198 0.1320322231056198 0.1320322231056198 -0.3372897284996471 
-0.3372897284996471 -0.3372897284996471 -0.3473251318640725 -0.3473251318640725 -0.3473251318640725 -0.3580008617967712 -0.3580008617967712 -0.3580008617967712 -0.5148377917326421 
-0.5148377917326421 -0.5148377917326421 -0.5181865537437694 -0.5181865537437694 -0.5181865537437694 -0.5212402965529499 -0.5212402965529499 -0.5212402965529499 -0.1831603874439856 
-0.1831603874439856 -0.1831603874439856 -0.1872143729399267 -0.1872143729399267 -0.1872143729399267 -0.2019215676012446 -0.2019215676012446 -0.2019215676012446 -0.7998060800475801 
-0.7998060800475801 -0.7998060800475801 -0.7892674015098327 -0.7892674015098327 -0.7892674015098327 -0.7900108442450141 -0.7900108442450141 -0.7900108442450141 0.2403302606607502 
0.2403302606607502 0.2403302606607502 0.249416552402207 0.249416552402207 0.249416552402207 0.2489141750222202 0.2489141750222202 0.2489141750222202 0.7061074368573756 
0.7061074368573756 0.7061074368573756 0.7197471532902937 0.7197471532902937 0.7197471532902937 0.09051531289270426 0.09051531289270426 0.09051531289270426 0.08306358315416734 
0.08306358315416734 0.08306358315416734 0.7730555827152688 0.7730555827152688 0.7730555827152688 0.7805931049625903 0.7805931049625903 0.7805931049625903 0.6958378197179644 
0.6958378197179644 0.6958378197179644 0.7029875435201207 0.7029875435201207 0.7029875435201207 -0.5645626587085222 -0.5645626587085222 -0.5645626587085222 -0.5568227147542519 
-0.5568227147542519 -0.5568227147542519 -0.1284888071520503 -0.1284888071520503 -0.1284888071520503 -0.1540693635109977 -0.1540693635109977 -0.1540693635109977 -0.8575051394132502 
-0.8575051394132502 -0.8575051394132502 -0.8582671805785022 -0.8582671805785022 -0.8582671805785022 -0.03156130824286948 -0.03156130824286948 -0.03156130824286948 -0.03907705496469534 
-0.03907705496469534 -0.03907705496469534 0.2233675547126269 0.2233675547126269 0.2233675547126269 0.2083208402656637 0.2083208402656637 0.2083208402656637 -0.3267531635562134 
-0.3267531635562134 -0.3267531635562134 -0.3194579296461057 -0.3194579296461057 -0.3194579296461057 0.6187161055337758 0.6187161055337758 0.6187161055337758 0.6127052120285357 
0.6127052120285357 0.6127052120285357 0.65523318932895 0.65523318932895 0.65523318932895 0.6459664722744234 0.6459664722744234 0.6459664722744234 0.1245211261757471 
0.1245211261757471 0.1245211261757471 0.1138376395066468 0.1138376395066468 0.1138376395066468 -0.05008608068656553 -0.05008608068656553 -0.05008608068656553 -0.05968583863873834 
-0.05968583863873834 -0.05968583863873834 -0.6675609209670854 -0.6675609209670854 -0.6675609209670854 -0.6802083609261451 -0.6802083609261451 -0.6802083609261451 0.7463601074097937 
0.7463601074097937 0.7463601074097937 0.7473285904085265 0.7473285904085265 0.7473285904085265 -0.1737496018103792 -0.1737496018103792 -0.1737496018103792 -0.1712361811160779 
-0.1712361811160779 -0.1712361811160779 0.6685615924410274 0.6685615924410274 0.6685615924410274 0.6592263563470996 0.6592263563470996 0.6592263563470996 -0.07967094651160968 
-0.07967094651160968 -0.07967094651160968 -0.06838764040965177 -0.06838764040965177 -0.06838764040965177 -0.2218287608406763 -0.2218287608406763 -0.2218287608406763 -0.2231775151007085 
-0.2231775151007085 -0.2231775151007085 0.5198075254508225 0.5198075254508225 0.5198075254508225 0.5510796909876947 0.5510796909876947 0.5510796909876947 -0.5119072011488558 
-0.5119072011488558 -0.5119072011488558 -0.5253086889355263 -0.5253086889355263 -0.5253086889355263 -0.8484231245196256 -0.8484231245196256 -0.8484231245196256 -0.8473900094977905 
-0.8473900094977905 -0.8473900094977905 0.3882195378126366 0.3882195378126366 0.3882195378126366 0.3921509532507211 0.3921509532507211 0.3921509532507211 0.2751989308168927 
0.2751989308168927 0.2751989308168927 0.2913354556588108 0.2913354556588108 0.2913354556588108 -0.4681454822065603 -0.4681454822065603 -0.4681454822065603 -0.4634627908793414 
-0.4634627908793414 -0.4634627908793414 -0.8550039216263787 -0.8550039216263787 -0.8550039216263787 -0.8546815571126687 -0.8546815571126687 -0.8546815571126687 0.4555638766122717 
0.4555638766122717 0.4555638766122717 0.4539585895136032 0.4539585895136032 0.4539585895136032 -0.008405942613943326 -0.008405942613943326 -0.008405942613943326 -0.004735536824721057 
-0.004735536824721057 -0.004735536824721057 -0.3766908482028469 -0.3766908482028469 -0.3766908482028469 -0.3665425543654735 -0.3665425543654735 -0.3665425543654735 -0.5931877355959794 
-0.5931877355959794 -0.5931877355959794 -0.5852071749867206 -0.5852071749867206 -0.5852071749867206 -0.4236480246666605 -0.4236480246666605 -0.4236480246666605 -0.4226876815750758 
-0.4226876815750758 -0.4226876815750758 -0.589877831573403 -0.589877831573403 -0.589877831573403 -0.600319234738411 -0.600319234738411 -0.600319234738411 0.5400894506403412 
0.5400894506403412 0.5400894506403412 0.5449489788470681 0.5449489788470681 0.5449489788470681 -0.5438175093715213 -0.5438175093715213 -0.5438175093715213 -0.5410178983829113 
-0.5410178983829113 -0.5410178983829113 -0.2355389803862258 -0.2355389803862258 -0.2355389803862258 -0.243554643598184 -0.243554643598184 -0.243554643598184 0.05267893531783058 
0.05267893531783058 0.05267893531783058 0.04322857804291026 0.04322857804291026 0.04322857804291026 0.1382161306972607 0.1382161306972607 0.1382161306972607 0.6464536871543631 
0.6464536871543631 0.6464536871543631 0.6377047853163769 0.6377047853163769 0.6377047853163769 0.6544855069366139 0.6544855069366139 0.6544855069366139 0.6525529756901234 
0.6525529756901234 0.6525529756901234 -0.6988250868304964 -0.6988250868304964 -0.6988250868304964 -0.6949085983145575 -0.6949085983145575 -0.6949085983145575 -0.356185232628687 
-0.356185232628687 -0.356185232628687 -0.3497413491370086 -0.3497413491370086 -0.3497413491370086 -0.0213269448907724 -0.0213269448907724 -0.0213269448907724 -0.03568924208417344 
-0.03568924208417344 -0.03568924208417344 0.7081935564874523 0.7081935564874523 0.7081935564874523 -0.5954437519531023 -0.5954437519531023 -0.5954437519531023 0.1864206220906811 
0.1864206220906811 0.1864206220906811 0.6014647045304593 0.6014647045304593 0.6014647045304593 -0.5003127916435389 -0.5003127916435389 -0.5003127916435389 -0.6982362868712386 
-0.6982362868712386 -0.6982362868712386 0.2088537287251064 0.2088537287251064 0.2088537287251064 -0.2046976326874689 -0.2046976326874689 -0.2046976326874689 0.6726582889198199 
0.6726582889198199 0.6726582889198199 -0.8497087615992864 -0.8497087615992864 -0.8497087615992864 0.6523623493835431 0.6523623493835431 0.6523623493835431 0.2758502072113935 
0.2758502072113935 0.2758502072113935 0.2536695692527231 0.2536695692527231 0.2536695692527231 -0.1537874634934884 -0.1537874634934884 -0.1537874634934884 -0.1696162520165649 
-0.1696162520165649 -0.1696162520165649 -0.1939820973343329 -0.1939820973343329 -0.1939820973343329 -0.1876796523851518 -0.1876796523851518 -0.1876796523851518 -0.2679380751782814 
-0.2679380751782814 -0.2679380751782814 -0.2706162112269961 -0.2706162112269961 -0.2706162112269961 0.4042742997229523 0.4042742997229523 0.4042742997229523 0.4197708109065598 
0.4197708109065598 0.4197708109065598 0.6404076375906654 0.6404076375906654 0.6404076375906654 0.6196964755873614 0.6196964755873614 0.6196964755873614 0.02804942926700594 
0.02804942926700594 0.02804942926700594 0.03340348307159618 0.03340348307159618 0.03340348307159618 -0.1051371201329271 -0.1051371201329271 -0.1051371201329271 -0.07796918861410507 
-0.07796918861410507 -0.07796918861410507 0.2632691404730354 0.2632691404730354 0.2632691404730354 0.2403404141911861 0.2403404141911861 0.2403404141911861 -0.1236727795769252 
-0.1236727795769252 -0.1236727795769252 -0.1106367804799145 -0.1106367804799145 -0.1106367804799145 0.5408891971992161 0.5408891971992161 0.5408891971992161 0.5342052859605162 
0.5342052859605162 0.5342052859605162 0.2808806272529909 0.2808806272529909 0.2808806272529909 0.2576610417824112 0.2576610417824112 0.2576610417824112 0.266240357940868 
0.266240357940868 0.266240357940868 0.2528508504598841 0.2528508504598841 0.2528508504598841 0.008752734805644593 0.008752734805644593 0.008752734805644593 0.0219957427993719 
0.0219957427993719 0.0219957427993719 -0.8383274660537442 -0.8383274660537442 -0.8383274660537442 -0.835733099638362 -0.835733099638362 -0.835733099638362 0.0975133582691108 
0.0975133582691108 0.0975133582691108 0.06740309382842796 0.06740309382842796 0.06740309382842796 -0.05467750125477099 -0.05467750125477099 -0.05467750125477099 -0.05652991034030422 
-0.05652991034030422 -0.05652991034030422 0.2091012499390685 0.2091012499390685 0.2091012499390685 0.2245653830399105 0.2245653830399105 0.2245653830399105 0.3406746878602041 
0.3406746878602041 0.3406746878602041 0.3500346972352038 0.3500346972352038 0.3500346972352038 -0.2211294329677526 -0.2211294329677526 -0.2211294329677526 -0.2145629971629778 
-0.2145629971629778 -0.2145629971629778 -0.6510532341575309 -0.6510532341575309 -0.6510532341575309 -0.6474882717086388 -0.6474882717086388 -0.6474882717086388 0.1877663526416619 
0.1877663526416619 0.1877663526416619 0.1790025288047379 0.1790025288047379 0.1790025288047379 0.1595389929785209 0.1595389929785209 0.1595389929785209 0.1844879720618308 
0.1844879720618308 0.1844879720618308 -0.007581814211089316 -0.007581814211089316 -0.007581814211089316 -0.03078616512594463 -0.03078616512594463 -0.03078616512594463 0.7344247579817142 
0.7344247579817142 0.7344247579817142 0.7278613694125058 0.7278613694125058 0.7278613694125058 -0.6471120551379841 -0.6471120551379841 -0.6471120551379841 -0.6569977470527237 
-0.6569977470527237 -0.6569977470527237 0.08702392712705498 0.08702392712705498 0.08702392712705498 0.1183771634634377 0.1183771634634377 0.1183771634634377 -0.1505116898337208 
-0.1505116898337208 -0.1505116898337208 -0.1648899556822451 -0.1648899556822451 -0.1648899556822451 0.07521691738753973 0.07521691738753973 0.07521691738753973 0.06112000214433192 
0.06112000214433192 0.06112000214433192 -0.07548159832042739 -0.07548159832042739 -0.07548159832042739 -0.06335091933581929 -0.06335091933581929 -0.06335091933581929 -0.8051502119328673 
-0.8051502119328673 -0.8051502119328673 -0.7995392867236804 -0.7995392867236804 -0.7995392867236804 0.4152279407476688 0.4152279407476688 0.4152279407476688 0.3879424823726609 
0.3879424823726609 0.3879424823726609 0.8350722079351462 0.8350722079351462 0.8350722079351462 0.8346213907525097 0.8346213907525097 0.8346213907525097 0.2093548562581082 
0.2093548562581082 0.2093548562581082 0.2266373327907723 0.2266373327907723 0.2266373327907723 0.05931559651427494 0.05931559651427494 0.05931559651427494 0.04825189584452783 
0.04825189584452783 0.04825189584452783 0.03936064607355746 0.03936064607355746 0.03936064607355746 0.05483105087257127 0.05483105087257127 0.05483105087257127 -0.1428585077787969 
-0.1428585077787969 -0.1428585077787969 -0.1246269713175665 -0.1246269713175665 -0.1246269713175665 0.6871546686124965 0.6871546686124965 0.6871546686124965 0.7079533533468788 
0.7079533533468788 0.7079533533468788 0.12367647868868 0.12367647868868 0.12367647868868 0.1097598409803992 0.1097598409803992 0.1097598409803992 0.7608057766926679 
0.7608057766926679 0.7608057766926679 0.7689422561182876 0.7689422561182876 0.7689422561182876 -0.04590997627315217 -0.04590997627315217 -0.04590997627315217 -0.06634190855430026 
-0.06634190855430026 -0.06634190855430026 -0.1455272185082621 -0.1455272185082621 -0.1455272185082621 -0.1657162244550738 -0.1657162244550738 -0.1657162244550738 -0.7966918444651397 
-0.7966918444651397 -0.7966918444651397 -0.8037755626311914 -0.8037755626311914 -0.8037755626311914 0.1453923760668542 0.1453923760668542 0.1453923760668542 0.1595744986634753 
0.1595744986634753 0.1595744986634753 -0.09762292334869455 -0.09762292334869455 -0.09762292334869455 -0.08259281085294337 -0.08259281085294337 -0.08259281085294337 -0.6354367973128633 
-0.6354367973128633 -0.6354367973128633 -0.6449315049352531 -0.6449315049352531 -0.6449315049352531 0.3453128835746052 0.3453128835746052 0.3453128835746052 0.3286202462546886 
0.3286202462546886 0.3286202462546886 0.6828678849439652 0.6828678849439652 0.6828678849439652 0.6870182636798117 0.6870182636798117 0.6870182636798117 -0.8468781811204433 
-0.8468781811204433 -0.8468781811204433 -0.8450024167861099 -0.8450024167861099 -0.8450024167861099 0.1987810830113826 0.1987810830113826 0.1987810830113826 0.1985273632728144 
0.1985273632728144 0.1985273632728144 0.71083725349008 0.71083725349008 0.71083725349008 0.7254579198413393 0.7254579198413393 0.7254579198413393 -0.04571771516440219 
-0.04571771516440219 -0.04571771516440219 -0.07256120473394891 -0.07256120473394891 -0.07256120473394891 -0.226558531260912 -0.226558531260912 -0.226558531260912 -0.2286541499605427 
-0.2286541499605427 -0.2286541499605427 -0.1143310759071095 -0.1143310759071095 -0.1143310759071095 -0.1319813594981847 -0.1319813594981847 -0.1319813594981847 0.2636869417113717 
0.2636869417113717 0.2636869417113717 0.2762131028481517 0.2762131028481517 0.2762131028481517 -0.4755986334522435 -0.4755986334522435 -0.4755986334522435 -0.4649510169869695 
-0.4649510169869695 -0.4649510169869695 -0.2147684855866644 -0.2147684855866644 -0.2147684855866644 -0.206655687587231 -0.206655687587231 -0.206655687587231 0.07359029852166214 
0.07359029852166214 0.07359029852166214 0.09771422865023568 0.09771422865023568 0.09771422865023568 0.7543621747226982 0.7543621747226982 0.7543621747226982 0.7599872061847909 
0.7599872061847909 0.7599872061847909 0.08023049602998805 0.08023049602998805 0.08023049602998805 0.04992346610635615 0.04992346610635615 0.04992346610635615 0.6636643393764148 
0.6636643393764148 0.6636643393764148 0.6698059077821588 0.6698059077821588 0.6698059077821588 0.268828659291537 0.268828659291537 0.268828659291537 0.2248133826339636 
0.2248133826339636 0.2248133826339636 0.2594798638822898 0.2594798638822898 0.2594798638822898 0.2684255039665638 0.2684255039665638 0.2684255039665638 0.4099262042564349 
0.4099262042564349 0.4099262042564349 0.4241493575073273 0.4241493575073273 0.4241493575073273 -0.7932509257694714 -0.7932509257694714 -0.7932509257694714 -0.7886486157673789 
-0.7886486157673789 -0.7886486157673789 0.5363922067325505 0.5363922067325505 0.5363922067325505 0.5250050088443168 0.5250050088443168 0.5250050088443168 -0.6509683671681119 
-0.6509683671681119 -0.6509683671681119 -0.6401993206754081 -0.6401993206754081 -0.6401993206754081 -0.1086665793048413 -0.1086665793048413 -0.1086665793048413 -0.103629840337749 
-0.103629840337749 -0.103629840337749 -0.09290447282596212 -0.09290447282596212 -0.09290447282596212 -0.1104160988995466 -0.1104160988995466 -0.1104160988995466 0.630095763326216 
0.630095763326216 0.630095763326216 0.6312261648061063 0.6312261648061063 0.6312261648061063 0.6494832621542643 0.6494832621542643 0.6494832621542643 -0.1102106657378128 
-0.1102106657378128 -0.1102106657378128 -0.1368849939352331 -0.1368849939352331 -0.1368849939352331 -0.137070592239333 -0.137070592239333 -0.137070592239333 -0.1489104137751931 
-0.1489104137751931 -0.1489104137751931 -0.03819841781023852 -0.03819841781023852 -0.03819841781023852 -0.03883365811982556 -0.03883365811982556 -0.03883365811982556 -0.05417257037487959 
-0.05417257037487959 -0.05417257037487959 -0.06038540246516761 -0.06038540246516761 -0.06038540246516761 -0.04690511388071469 -0.04690511388071469 -0.04690511388071469 -0.03571641532600859 
-0.03571641532600859 -0.03571641532600859 -0.06242028279332067 -0.06242028279332067 -0.06242028279332067 -0.08024627048579774 -0.08024627048579774 -0.08024627048579774 -0.09061792140634131 
-0.09061792140634131 -0.09061792140634131 -0.5656732046221178 -0.5656732046221178 -0.5656732046221178 -0.5630449011660603 -0.5630449011660603 -0.5630449011660603 -0.5603027971680168 
-0.5603027971680168 -0.5603027971680168 -0.06650233696435449 -0.06650233696435449 -0.06650233696435449 -0.07279036168479164 -0.07279036168479164 -0.07279036168479164 -0.06995249733966119 
-0.06995249733966119 -0.06995249733966119 0.7345292430451851 0.7345292430451851 0.7345292430451851 0.7324512693483909 0.7324512693483909 0.7324512693483909 0.7233797936028799 
0.7233797936028799 0.7233797936028799 -0.153966339725641 -0.153966339725641 -0.153966339725641 -0.1827017835567713 -0.1827017835567713 -0.1827017835567713 -0.1892382656670215 
-0.1892382656670215 -0.1892382656670215 0.4488217257969648 0.4488217257969648 0.4488217257969648 0.4509542973828936 0.4509542973828936 0.4509542973828936 0.465330448430254 
0.465330448430254 0.465330448430254 0.5187501676609096 0.5187501676609096 0.5187501676609096 0.5325776965046138 0.5325776965046138 0.5325776965046138 0.5258253530018221 
0.5258253530018221 0.5258253530018221 0.6536173272324695 0.6536173272324695 0.6536173272324695 0.6524702385999925 0.6524702385999925 0.6524702385999925 -0.08409739510644217 
-0.08409739510644217 -0.08409739510644217 -0.06970654747671308 -0.06970654747671308 -0.06970654747671308 -0.05978436289310874 -0.05978436289310874 -0.05978436289310874 -0.6463047829959434 
-0.6463047829959434 -0.6463047829959434 -0.6492876014236646 -0.6492876014236646 -0.6492876014236646 -0.6602676424247088 -0.6602676424247088 -0.6602676424247088 0.05910268480444195 
0.05910268480444195 0.05910268480444195 0.068882801001972 0.068882801001972 0.068882801001972 0.08392075363435066 0.08392075363435066 0.08392075363435066 0.7252395377115772 
0.7252395377115772 0.7252395377115772 0.7326502472103262 0.7326502472103262 0.7326502472103262 0.7315136878223615 0.7315136878223615 0.7315136878223615 -0.3098831033855864 
-0.3098831033855864 -0.3098831033855864 -0.3126463465989578 -0.3126463465989578 -0.3126463465989578 -0.3160742015251944 -0.3160742015251944 -0.3160742015251944 0.0004701076078697217 
0.0004701076078697217 0.0004701076078697217 -0.001723235298563104 -0.001723235298563104 -0.001723235298563104 -0.008977344894492333 -0.008977344894492333 -0.008977344894492333 0.1211746260356442 
0.1211746260356442 0.1211746260356442 0.1297583471299398 0.1297583471299398 0.1297583471299398 -0.6867619913369795 -0.6867619913369795 -0.6867619913369795 -0.6960076686757053 
-0.6960076686757053 -0.6960076686757053 0.5651476692375029 0.5651476692375029 0.5651476692375029 0.5684945256236272 0.5684945256236272 0.5684945256236272 -0.465289240880967 
-0.465289240880967 -0.465289240880967 -0.4550120537804421 -0.4550120537804421 -0.4550120537804421 -0.0002981283304701619 -0.0002981283304701619 -0.0002981283304701619 -0.009017365861603756 
-0.009017365861603756 -0.009017365861603756 0.2039602690113439 0.2039602690113439 0.2039602690113439 0.2019942245260014 0.2019942245260014 0.2019942245260014 -0.01580579694019286 
-0.01580579694019286 -0.01580579694019286 -0.03844834098538749 -0.03844834098538749 -0.03844834098538749 -0.4276406053700164 -0.4276406053700164 -0.4276406053700164 -0.4223193649143506 
-0.4223193649143506 -0.4223193649143506 -0.7155250362759255 -0.7155250362759255 -0.7155250362759255 -0.7080364169021541 -0.7080364169021541 -0.7080364169021541 0.02797612328990687 
0.02797612328990687 0.02797612328990687 0.0324099915474718 0.0324099915474718 0.0324099915474718 -0.03593138796240492 -0.03593138796240492 -0.03593138796240492 -0.0338535777655373 
-0.0338535777655373 -0.0338535777655373 0.1171593861987653 0.1171593861987653 0.1171593861987653 0.1338455565120845 0.1338455565120845 0.1338455565120845 0.2465598030843857 
0.2465598030843857 0.2465598030843857 0.2404526427781015 0.2404526427781015 0.2404526427781015 0.01554708161444642 0.01554708161444642 0.01554708161444642 -0.002194692922143112 
-0.002194692922143112 -0.002194692922143112 0.004410617885884841 0.004410617885884841 0.004410617885884841 0.002225835561963048 0.002225835561963048 0.002225835561963048 0.7574878320506647 
0.7574878320506647 0.7574878320506647 0.7578825985422559 0.7578825985422559 0.7578825985422559 -0.5863667113072141 -0.5863667113072141 -0.5863667113072141 -0.5670310695398176 
-0.5670310695398176 -0.5670310695398176 0.7048358699427728 0.7048358699427728 0.7048358699427728 0.7126918452376916 0.7126918452376916 0.7126918452376916 0.241589389035629 
0.241589389035629 0.241589389035629 0.2355615800125098 0.2355615800125098 0.2355615800125098 -0.5765395690139241 -0.5765395690139241 -0.5765395690139241 -0.5665090049393517 
-0.5665090049393517 -0.5665090049393517 -0.04730996843351227 -0.04730996843351227 -0.04730996843351227 -0.03722834301786557 -0.03722834301786557 -0.03722834301786557 -0.1554476357456892 
-0.1554476357456892 -0.1554476357456892 -0.1537761113285456 -0.1537761113285456 -0.1537761113285456 -0.2237313713378632 -0.2237313713378632 -0.2237313713378632 -0.2088094219187364 
-0.2088094219187364 -0.2088094219187364 -0.6563287556645512 -0.6563287556645512 -0.6563287556645512 -0.653939736644678 -0.653939736644678 -0.653939736644678 -0.8151912516462472 
-0.8151912516462472 -0.8151912516462472 -0.8054204763059888 -0.8054204763059888 -0.8054204763059888 0.07178860050095874 0.07178860050095874 0.07178860050095874 0.0707399102326777 
0.0707399102326777 0.0707399102326777 -0.02329350387449371 -0.02329350387449371 -0.02329350387449371 -0.04704661381064882 -0.04704661381064882 -0.04704661381064882 0.6729910454791026 
0.6729910454791026 0.6729910454791026 0.6719618662568267 0.6719618662568267 0.6719618662568267 0.1181671904111618 0.1181671904111618 0.1181671904111618 0.1209899269167604 
0.1209899269167604 0.1209899269167604 -0.03771094226357352 -0.03771094226357352 -0.03771094226357352 -0.03852010670458151 -0.03852010670458151 -0.03852010670458151 -0.05092741601491388 
-0.05092741601491388 -0.05092741601491388 -0.03877606806254118 -0.03877606806254118 -0.03877606806254118 -0.5433025076347339 -0.5433025076347339 -0.5433025076347339 -0.5339800534315069 
-0.5339800534315069 -0.5339800534315069 0.221432005554095 0.221432005554095 0.221432005554095 0.2123011767797486 0.2123011767797486 0.2123011767797486 0.691307043197394 
0.691307043197394 0.691307043197394 0.7121519272902048 0.7121519272902048 0.7121519272902048 -0.3087272195115557 -0.3087272195115557 -0.3087272195115557 -0.3180833350971952 
-0.3180833350971952 -0.3180833350971952 -0.545409958868432 -0.545409958868432 -0.545409958868432 -0.5408539159706376 -0.5408539159706376 -0.5408539159706376 -0.1511098260187617 
-0.1511098260187617 -0.1511098260187617 -0.1450126586252608 -0.1450126586252608 -0.1450126586252608 -0.306136156941599 -0.306136156941599 -0.306136156941599 -0.3256261394734734 
-0.3256261394734734 -0.3256261394734734 -0.5925272863042014 -0.5925272863042014 -0.5925272863042014 -0.5794180509140401 -0.5794180509140401 -0.5794180509140401 0.08418742651130197 
0.08418742651130197 0.08418742651130197 0.07678728186122064 0.07678728186122064 0.07678728186122064 -0.6852148542963383 -0.6852148542963383 -0.6852148542963383 -0.6891283678454039 
-0.6891283678454039 -0.6891283678454039 0.2185764306705193 0.2185764306705193 0.2185764306705193 0.2187505375780943 0.2187505375780943 0.2187505375780943 -0.151425314326537 
-0.151425314326537 -0.151425314326537 -0.146730564376735 -0.146730564376735 -0.146730564376735 0.1519099459408709 0.1519099459408709 0.1519099459408709 0.135259558284369 
0.135259558284369 0.135259558284369 0.1329415516318691 0.1329415516318691 0.1329415516318691 0.143304385507922 0.143304385507922 0.143304385507922 -0.7874974616516153 
-0.7874974616516153 -0.7874974616516153 -0.7926281526508397 -0.7926281526508397 -0.7926281526508397 -0.08685845783363463 -0.08685845783363463 -0.08685845783363463 -0.08275250878132451 
-0.08275250878132451 -0.08275250878132451 0.1916965812370905 0.1916965812370905 0.1916965812370905 0.2035660786644958 0.2035660786644958 0.2035660786644958 -0.1515875477634899 
-0.1515875477634899 -0.1515875477634899 -0.1407981867588071 -0.1407981867588071 -0.1407981867588071 0.7471891001460139 0.7471891001460139 0.7471891001460139 0.7454879681865407 
0.7454879681865407 0.7454879681865407 0.3297813086205626 0.3297813086205626 0.3297813086205626 0.3087474905232717 0.3087474905232717 0.3087474905232717 -0.5205914330062611 
-0.5205914330062611 -0.5205914330062611 -0.5325948598243411 -0.5325948598243411 -0.5325948598243411 -0.2549670760809992 -0.2549670760809992 -0.2549670760809992 -0.2595650792624145 
-0.2595650792624145 -0.2595650792624145 0.2337251121679037 0.2337251121679037 0.2337251121679037 0.2334753017852152 0.2334753017852152 0.2334753017852152 -0.2681531487306101 
-0.2681531487306101 -0.2681531487306101 -0.2633348857401184 -0.2633348857401184 -0.2633348857401184 -0.6850340524021759 -0.6850340524021759 -0.6850340524021759 -0.6922156866382307 
-0.6922156866382307 -0.6922156866382307 0.1388856093022137 0.1388856093022137 0.1388856093022137 0.1395602000025238 0.1395602000025238 0.1395602000025238 -0.7003121316159843 
-0.7003121316159843 -0.7003121316159843 -0.7075762712403983 -0.7075762712403983 -0.7075762712403983 -0.574785478028122 -0.574785478028122 -0.574785478028122 -0.5794983774357847 
-0.5794983774357847 -0.5794983774357847 -0.08218282503928338 -0.08218282503928338 -0.08218282503928338 -0.07191945830766314 -0.07191945830766314 -0.07191945830766314 -0.02591810627807061 
-0.02591810627807061 -0.02591810627807061 -0.02593053644218461 -0.02593053644218461 -0.02593053644218461 0.04892732097778897 0.04892732097778897 0.04892732097778897 0.05787524433758213 
0.05787524433758213 0.05787524433758213 -0.5591884555880196 -0.5591884555880196 -0.5591884555880196 -0.5521074361673278 -0.5521074361673278 -0.5521074361673278 0.1406483514946398 
0.1406483514946398 0.1406483514946398 0.1551431256249715 0.1551431256249715 0.1551431256249715 -0.03080297693707192 -0.03080297693707192 -0.03080297693707192 -0.03041148600670803 
-0.03041148600670803 -0.03041148600670803 0.2382180997037424 0.2382180997037424 0.2382180997037424 0.2498724431641438 0.2498724431641438 0.2498724431641438 -0.1238812520548124 
-0.1238812520548124 -0.1238812520548124 -0.1390028398849486 -0.1390028398849486 -0.1390028398849486 -0.02026432662999776 -0.02026432662999776 -0.02026432662999776 -0.01248673627660225 
-0.01248673627660225 -0.01248673627660225 0.2431142849264987 0.2431142849264987 0.2431142849264987 0.2537298948923317 0.2537298948923317 0.2537298948923317 -0.3658894842237611 
-0.3658894842237611 -0.3658894842237611 -0.3547698825438171 -0.3547698825438171 -0.3547698825438171 0.3899681970374607 0.3899681970374607 0.3899681970374607 0.3965660349537338 
0.3965660349537338 0.3965660349537338 0.1485091227784951 0.1485091227784951 0.1485091227784951 0.1471317274958586 0.1471317274958586 0.1471317274958586 0.1012044169750287 
0.1012044169750287 0.1012044169750287 0.1052131658604225 0.1052131658604225 0.1052131658604225 -0.593377164494882 -0.593377164494882 -0.593377164494882 -0.6053535656228465 
-0.6053535656228465 -0.6053535656228465 0.3366209864450408 0.3366209864450408 0.3366209864450408 0.3253208269954459 0.3253208269954459 0.3253208269954459 0.2669565965742058 
0.2669565965742058 0.2669565965742058 0.2612211466356074 0.2612211466356074 0.2612211466356074 0.1682450286875513 0.1682450286875513 0.1682450286875513 0.1540964928571201 
0.1540964928571201 0.1540964928571201 -0.5671198077337567 -0.5671198077337567 -0.5671198077337567 -0.5567898754445851 -0.5567898754445851 -0.5567898754445851 0.09809651944368958 
0.09809651944368958 0.09809651944368958 0.1153419480706542 0.1153419480706542 0.1153419480706542 0.1681705744948483 0.1681705744948483 0.1681705744948483 0.1605521632179612 
0.1605521632179612 0.1605521632179612 0.05778707374478807 0.05778707374478807 0.05778707374478807 0.04437294613926859 0.04437294613926859 0.04437294613926859 0.7268991075836144 
0.7268991075836144 0.7268991075836144 0.7276560884756833 0.7276560884756833 0.7276560884756833 0.2096443769256873 0.2096443769256873 0.2096443769256873 0.209646576266375 
0.209646576266375 0.209646576266375 -0.09248033028651538 -0.09248033028651538 -0.09248033028651538 -0.0919616599701519 -0.0919616599701519 -0.0919616599701519 -0.555786130784967 
-0.555786130784967 -0.555786130784967 -0.5666270836748799 -0.5666270836748799 -0.5666270836748799 0.760870171559886 0.760870171559886 0.760870171559886 0.7708356005856325 
0.7708356005856325 0.7708356005856325 -0.1340123683073091 -0.1340123683073091 -0.1340123683073091 -0.1289102095199978 -0.1289102095199978 -0.1289102095199978 0.8460937233449602 
0.8460937233449602 0.8460937233449602 0.8468846364734218 0.8468846364734218 0.8468846364734218 -0.448150229674716 -0.448150229674716 -0.448150229674716 -0.4409449167461426 
-0.4409449167461426 -0.4409449167461426 0.6234698816179163 0.6234698816179163 0.6234698816179163 0.6122791094817204 0.6122791094817204 0.6122791094817204 -0.1387763093109301 
-0.1387763093109301 -0.1387763093109301 -0.1511271731631387 -0.1511271731631387 -0.1511271731631387 0.1101363093331032 0.1101363093331032 0.1101363093331032 0.09913181374527692 
0.09913181374527692 0.09913181374527692 -0.009652316168464056 -0.009652316168464056 -0.009652316168464056 -0.006799849616710562 -0.006799849616710562 -0.006799849616710562 -0.853650976978843 
-0.853650976978843 -0.853650976978843 -0.8516369275658586 -0.8516369275658586 -0.8516369275658586 0.0312040936398543 0.0312040936398543 0.0312040936398543 0.0343610607431971 
0.0343610607431971 0.0343610607431971 -0.05233270962199273 -0.05233270962199273 -0.05233270962199273 -0.0417282424868695 -0.0417282424868695 -0.0417282424868695 -0.02543631333839709 
-0.02543631333839709 -0.02543631333839709 -0.02341257082305469 -0.02341257082305469 -0.02341257082305469 0.6815483300837155 0.6815483300837155 0.6815483300837155 0.6733048603505214 