Title = Triangle150
FileType = Solution
Variables = q
Zone T = Triangle150
ZoneType = FETriangle
Nodes = 212082
Elements = 70694
DataPacking = Block
StrandID = 1
SolutionTime = 0
0.8272268638390937 0.8272268638390937 0.8272268638390937 0.8127832441401512 0.8127832441401512 0.8127832441401512 0.805927892707944 0.805927892707944 0.805927892707944 -0.984084653662711 
-0.984084653662711 -0.984084653662711 -0.9808621108687401 -0.9808621108687401 -0.9808621108687401 -0.9806882489417714 -0.9806882489417714 -0.9806882489417714 0.4037304866274747 
0.4037304866274747 0.4037304866274747 0.3911359082368731 0.3911359082368731 0.3911359082368731 0.3796737235018694 0.3796737235018694 0.3796737235018694 0.6889596235344778 
0.6889596235344778 0.6889596235344778 0.6770341173754204 0.6770341173754204 0.6770341173754204 0.6699175148679442 0.6699175148679442 0.6699175148679442 -0.2164467196488961 
-0.2164467196488961 -0.2164467196488961 -0.2146062311752449 -0.2146062311752449 -0.2146062311752449 -0.2232419022737834 -0.2232419022737834 -0.2232419022737834 -0.3497331196796344 
-0.3497331196796344 -0.3497331196796344 -0.3418699953135103 -0.3418699953135103 -0.3418699953135103 -0.3255760486910309 -0.3255760486910309 -0.3255760486910309 0.2954898123271901 
0.2954898123271901 0.2954898123271901 0.3041206729984173 0.3041206729984173 0.3041206729984173 -0.1354288225691923 -0.1354288225691923 -0.1354288225691923 -0.136020407541389 
-0.136020407541389 -0.136020407541389 0.4555266147462879 0.4555266147462879 0.4555266147462879 0.4607530367241153 0.4607530367241153 0.4607530367241153 0.7030843913232872 
0.7030843913232872 0.7030843913232872 0.6914037028756029 0.6914037028756029 0.6914037028756029 -0.3180043128916903 -0.3180043128916903 -0.3180043128916903 -0.3155521491903853 
-0.3155521491903853 -0.3155521491903853 -0.3152036238582429 -0.3152036238582429 -0.3152036238582429 -0.3288729921124212 -0.3288729921124212 -0.3288729921124212 -0.2964866785149803 
-0.2964866785149803 -0.2964866785149803 -0.2817179427299906 -0.2817179427299906 -0.2817179427299906 0.02429247330675165 0.02429247330675165 0.02429247330675165 0.04274288862359645 
0.04274288862359645 0.04274288862359645 0.1946118892368728 0.1946118892368728 0.1946118892368728 0.1834224281790524 0.1834224281790524 0.1834224281790524 -0.04237622470266398 
-0.04237622470266398 -0.04237622470266398 -0.03841856336426135 -0.03841856336426135 -0.03841856336426135 0.3416584091872406 0.3416584091872406 0.3416584091872406 0.3431043861205249 
0.3431043861205249 0.3431043861205249 -0.04100426934366474 -0.04100426934366474 -0.04100426934366474 -0.0413004737618301 -0.0413004737618301 -0.0413004737618301 0.7668648284440029 
0.7668648284440029 0.7668648284440029 0.7642150726358934 0.7642150726358934 0.7642150726358934 0.6557913121745549 0.6557913121745549 0.6557913121745549 0.6614964849969084 
0.6614964849969084 0.6614964849969084 -0.6680355992529418 -0.6680355992529418 -0.6680355992529418 -0.6687780313333894 -0.6687780313333894 -0.6687780313333894 0.6008756644478924 
0.6008756644478924 0.6008756644478924 0.5934312444203973 0.5934312444203973 0.5934312444203973 -0.1469127434023928 -0.1469127434023928 -0.1469127434023928 -0.1388128011174663 
-0.1388128011174663 -0.1388128011174663 0.1195429929841299 0.1195429929841299 0.1195429929841299 0.1202399175163631 0.1202399175163631 0.1202399175163631 0.3574548110165993 
0.3574548110165993 0.3574548110165993 0.3456232714212248 0.3456232714212248 0.3456232714212248 -0.07275260786967316 -0.07275260786967316 -0.07275260786967316 -0.08315009098085335 
-0.08315009098085335 -0.08315009098085335 0.4497474177703568 0.4497474177703568 0.4497474177703568 0.4603703444412299 0.4603703444412299 0.4603703444412299 -0.2543179867967109 
-0.2543179867967109 -0.2543179867967109 -0.2595189961978674 -0.2595189961978674 -0.2595189961978674 -0.1318016639374465 -0.1318016639374465 -0.1318016639374465 -0.1228133290289967 
-0.1228133290289967 -0.1228133290289967 0.1968929526351443 0.1968929526351443 0.1968929526351443 0.1866898281730399 0.1866898281730399 0.1866898281730399 -0.1405728242925531 
-0.1405728242925531 -0.1405728242925531 -0.1277590240580545 -0.1277590240580545 -0.1277590240580545 0.4933443545913051 0.4933443545913051 0.4933443545913051 0.5064574214858305 
0.5064574214858305 0.5064574214858305 -0.2689224401359858 -0.2689224401359858 -0.2689224401359858 -0.2559357256591481 -0.2559357256591481 -0.2559357256591481 0.1121783571548157 
0.1121783571548157 0.1121783571548157 0.09829232118740563 0.09829232118740563 0.09829232118740563 -0.1836645255552145 -0.1836645255552145 -0.1836645255552145 -0.1991420640396654 
-0.1991420640396654 -0.1991420640396654 -0.03173893975263362 -0.03173893975263362 -0.03173893975263362 -0.03757360493820286 -0.03757360493820286 -0.03757360493820286 -0.7915991675044982 
-0.7915991675044982 -0.7915991675044982 -0.803184158926933 -0.803184158926933 -0.803184158926933 0.01283810117172122 0.01283810117172122 0.01283810117172122 0.02230975420119862 
0.02230975420119862 0.02230975420119862 -0.5384316100929011 -0.5384316100929011 -0.5384316100929011 -0.5481375559970173 -0.5481375559970173 -0.5481375559970173 0.5208707125107936 
0.5208707125107936 0.5208707125107936 0.5095949533954175 0.5095949533954175 0.5095949533954175 -0.04726738864144177 -0.04726738864144177 -0.04726738864144177 -0.04652903702574261 
-0.04652903702574261 -0.04652903702574261 0.005307673577515677 0.005307673577515677 0.005307673577515677 0.01344944072095788 0.01344944072095788 0.01344944072095788 -0.1470143687861877 
-0.1470143687861877 -0.1470143687861877 -0.1462379941993607 -0.1462379941993607 -0.1462379941993607 0.794610415786884 0.794610415786884 0.794610415786884 -0.02890202076939456 
-0.02890202076939456 -0.02890202076939456 -0.03561778555376242 -0.03561778555376242 -0.03561778555376242 0.1225835235066485 0.1225835235066485 0.1225835235066485 0.1435700450247652 
0.1435700450247652 0.1435700450247652 -0.3881887056398594 -0.3881887056398594 -0.3881887056398594 -0.3936402238538706 -0.3936402238538706 -0.3936402238538706 -0.03007614789545271 
-0.03007614789545271 -0.03007614789545271 -0.03618618542457058 -0.03618618542457058 -0.03618618542457058 -0.8094151630524602 -0.8094151630524602 -0.8094151630524602 -0.8160537563268309 
-0.8160537563268309 -0.8160537563268309 0.1584561246997761 0.1584561246997761 0.1584561246997761 -0.5912763005878072 -0.5912763005878072 -0.5912763005878072 0.1761205062621186 
0.1761205062621186 0.1761205062621186 -0.3338073788457611 -0.3338073788457611 -0.3338073788457611 -0.5592189785002284 -0.5592189785002284 -0.5592189785002284 -0.7002914812400259 
-0.7002914812400259 -0.7002914812400259 0.2897064120319615 0.2897064120319615 0.2897064120319615 0.08118590766938881 0.08118590766938881 0.08118590766938881 0.5793008082199009 
0.5793008082199009 0.5793008082199009 -0.2845385119437996 -0.2845385119437996 -0.2845385119437996 -0.008647933783840617 -0.008647933783840617 -0.008647933783840617 -0.6150765641161517 
-0.6150765641161517 -0.6150765641161517 -0.638117906339873 -0.638117906339873 -0.638117906339873 0.3553333996484297 0.3553333996484297 0.3553333996484297 0.3646225000924334 
0.3646225000924334 0.3646225000924334 0.507349800523919 0.507349800523919 0.507349800523919 0.5314853771412051 0.5314853771412051 0.5314853771412051 0.617091379336897 
0.617091379336897 0.617091379336897 0.5972995482371714 0.5972995482371714 0.5972995482371714 -0.6208154474106996 -0.6208154474106996 -0.6208154474106996 -0.6052761063494125 
-0.6052761063494125 -0.6052761063494125 0.7194744775667926 0.7194744775667926 0.7194744775667926 0.7311828212991648 0.7311828212991648 0.7311828212991648 0.6030659658377747 
0.6030659658377747 0.6030659658377747 0.6043807085956212 0.6043807085956212 0.6043807085956212 -0.9274355279247366 -0.9274355279247366 -0.9274355279247366 -0.9204390338265358 
-0.9204390338265358 -0.9204390338265358 -0.6927701875894632 -0.6927701875894632 -0.6927701875894632 -0.7101441137836688 -0.7101441137836688 -0.7101441137836688 0.1902377084588519 
0.1902377084588519 0.1902377084588519 0.2160524433956675 0.2160524433956675 0.2160524433956675 0.1418003907685735 0.1418003907685735 0.1418003907685735 0.173180155562879 
0.173180155562879 0.173180155562879 0.15475302660931 0.15475302660931 0.15475302660931 0.1161434904898473 0.1161434904898473 0.1161434904898473 -0.3675395350842338 
-0.3675395350842338 -0.3675395350842338 -0.395048051836058 -0.395048051836058 -0.395048051836058 0.3282164387572979 0.3282164387572979 0.3282164387572979 0.3447198268317763 
0.3447198268317763 0.3447198268317763 -0.3688613076567586 -0.3688613076567586 -0.3688613076567586 -0.3913056956133544 -0.3913056956133544 -0.3913056956133544 0.160438437568505 
0.160438437568505 0.160438437568505 0.1631168994202405 0.1631168994202405 0.1631168994202405 0.3366764181047372 0.3366764181047372 0.3366764181047372 0.3485565732954603 
0.3485565732954603 0.3485565732954603 0.1478160179078269 0.1478160179078269 0.1478160179078269 0.1315364814078206 0.1315364814078206 0.1315364814078206 -0.380073955672369 
-0.380073955672369 -0.380073955672369 -0.3544882754275646 -0.3544882754275646 -0.3544882754275646 -0.9226806126524796 -0.9226806126524796 -0.9226806126524796 -0.9264426353421115 
-0.9264426353421115 -0.9264426353421115 0.3047738395952569 0.3047738395952569 0.3047738395952569 0.3191263023486473 0.3191263023486473 0.3191263023486473 -0.6453004877656714 
-0.6453004877656714 -0.6453004877656714 -0.6302781724858622 -0.6302781724858622 -0.6302781724858622 -0.7510107730830241 -0.7510107730830241 -0.7510107730830241 -0.7418175511121821 
-0.7418175511121821 -0.7418175511121821 0.932582602508175 0.932582602508175 0.932582602508175 0.9212234071343429 0.9212234071343429 0.9212234071343429 0.6292248784736044 
0.6292248784736044 0.6292248784736044 0.6159594682961604 0.6159594682961604 0.6159594682961604 -0.2848350399402034 -0.2848350399402034 -0.2848350399402034 -0.3044971275556219 
-0.3044971275556219 -0.3044971275556219 0.8995342806428133 0.8995342806428133 0.8995342806428133 0.9086583066207081 0.9086583066207081 0.9086583066207081 0.4845311788454513 
0.4845311788454513 0.4845311788454513 0.5035589987856025 0.5035589987856025 0.5035589987856025 0.7577684757681796 0.7577684757681796 0.7577684757681796 0.7327575483309303 
0.7327575483309303 0.7327575483309303 0.6191982190706341 0.6191982190706341 0.6191982190706341 0.6147360706483389 0.6147360706483389 0.6147360706483389 -0.05575010394767963 
-0.05575010394767963 -0.05575010394767963 -0.03594025146502179 -0.03594025146502179 -0.03594025146502179 0.5968682103329247 0.5968682103329247 0.5968682103329247 0.5895201509712126 
0.5895201509712126 0.5895201509712126 0.4471247777012386 0.4471247777012386 0.4471247777012386 0.4508425131951143 0.4508425131951143 0.4508425131951143 0.1396562800481627 
0.1396562800481627 0.1396562800481627 0.1294920732820835 0.1294920732820835 0.1294920732820835 -0.2541069736292522 -0.2541069736292522 -0.2541069736292522 -0.2534907361545349 
-0.2534907361545349 -0.2534907361545349 -0.8854749879392713 -0.8854749879392713 -0.8854749879392713 -0.8846251269366877 -0.8846251269366877 -0.8846251269366877 0.04368153805783691 
0.04368153805783691 0.04368153805783691 0.03621178561145728 0.03621178561145728 0.03621178561145728 -0.07056153552943084 -0.07056153552943084 -0.07056153552943084 -0.07201076400475619 
-0.07201076400475619 -0.07201076400475619 -0.7393710278763728 -0.7393710278763728 -0.7393710278763728 -0.7440863297208251 -0.7440863297208251 -0.7440863297208251 -0.09902666636076371 
-0.09902666636076371 -0.09902666636076371 -0.08273356507757189 -0.08273356507757189 -0.08273356507757189 -0.0501230442851152 -0.0501230442851152 -0.0501230442851152 -0.04730217245349379 
-0.04730217245349379 -0.04730217245349379 0.7837744311285668 0.7837744311285668 0.7837744311285668 0.7757284271368208 0.7757284271368208 0.7757284271368208 -0.5603222192978173 
-0.5603222192978173 -0.5603222192978173 -0.5446416217678356 -0.5446416217678356 -0.5446416217678356 -0.7614042484370702 -0.7614042484370702 -0.7614042484370702 -0.7422224466334774 
-0.7422224466334774 -0.7422224466334774 0.6800734231631194 0.6800734231631194 0.6800734231631194 0.6953156544615748 0.6953156544615748 0.6953156544615748 0.2361434788892081 
0.2361434788892081 0.2361434788892081 0.2027888104146758 0.2027888104146758 0.2027888104146758 0.6157415632786503 0.6157415632786503 0.6157415632786503 0.6303212686089391 
0.6303212686089391 0.6303212686089391 -0.195713511736173 -0.195713511736173 -0.195713511736173 -0.207184221219972 -0.207184221219972 -0.207184221219972 -0.3580683397040607 
-0.3580683397040607 -0.3580683397040607 -0.3447077421927389 -0.3447077421927389 -0.3447077421927389 0.7250416276048138 0.7250416276048138 0.7250416276048138 0.7099265697452943 
0.7099265697452943 0.7099265697452943 0.3014826165450376 0.3014826165450376 0.3014826165450376 0.2984242086117464 0.2984242086117464 0.2984242086117464 0.06324344754470115 
0.06324344754470115 0.06324344754470115 0.04999938869851225 0.04999938869851225 0.04999938869851225 0.517195621530012 0.517195621530012 0.517195621530012 0.5415563374391803 
0.5415563374391803 0.5415563374391803 -0.5954942312681173 -0.5954942312681173 -0.5954942312681173 -0.6179907594349658 -0.6179907594349658 -0.6179907594349658 0.5430221261002878 
0.5430221261002878 0.5430221261002878 0.5280206423636828 0.5280206423636828 0.5280206423636828 -0.9100118483926795 -0.9100118483926795 -0.9100118483926795 -0.9223231790975887 
-0.9223231790975887 -0.9223231790975887 -0.2197293647264005 -0.2197293647264005 -0.2197293647264005 -0.2430030415728848 -0.2430030415728848 -0.2430030415728848 0.9701864747420509 
0.9701864747420509 0.9701864747420509 0.9772523588073302 0.9772523588073302 0.9772523588073302 0.0006943927968590003 0.0006943927968590003 0.0006943927968590003 0.01789335116663921 
0.01789335116663921 0.01789335116663921 -0.8081262492207806 -0.8081262492207806 -0.8081262492207806 -0.8198507052294882 -0.8198507052294882 -0.8198507052294882 0.1843670964235415 
0.1843670964235415 0.1843670964235415 0.2179424427814976 0.2179424427814976 0.2179424427814976 0.1474782075229818 0.1474782075229818 0.1474782075229818 0.1087775049880001 
0.1087775049880001 0.1087775049880001 -0.7550141517291378 -0.7550141517291378 -0.7550141517291378 -0.7529397079884592 -0.7529397079884592 -0.7529397079884592 -0.5994942524898187 
-0.5994942524898187 -0.5994942524898187 -0.5864659664741617 -0.5864659664741617 -0.5864659664741617 -0.1834352635269077 -0.1834352635269077 -0.1834352635269077 -0.1614250347625479 
-0.1614250347625479 -0.1614250347625479 0.4166569327942546 0.4166569327942546 0.4166569327942546 0.385295594874162 0.385295594874162 0.385295594874162 -0.07192162610466482 
-0.07192162610466482 -0.07192162610466482 -0.06953346036045152 -0.06953346036045152 -0.06953346036045152 0.6982535339820131 0.6982535339820131 0.6982535339820131 0.7065953238525028 
0.7065953238525028 0.7065953238525028 0.706053494805713 0.706053494805713 0.706053494805713 0.6783931719636318 0.6783931719636318 0.6783931719636318 -0.1128469165841961 
-0.1128469165841961 -0.1128469165841961 -0.09883201724811191 -0.09883201724811191 -0.09883201724811191 -0.09548165046697217 -0.09548165046697217 -0.09548165046697217 0.4409628625361773 
0.4409628625361773 0.4409628625361773 0.4478992368463902 0.4478992368463902 0.4478992368463902 0.4625384832636397 0.4625384832636397 0.4625384832636397 0.4712230247923029 
0.4712230247923029 0.4712230247923029 0.2802514668008881 0.2802514668008881 0.2802514668008881 0.2633016981243485 0.2633016981243485 0.2633016981243485 0.2560964635224738 
0.2560964635224738 0.2560964635224738 0.8923807748515531 0.8923807748515531 0.8923807748515531 0.8998820666806017 0.8998820666806017 0.8998820666806017 0.9073239980942384 
0.9073239980942384 0.9073239980942384 0.9015332215606937 0.9015332215606937 0.9015332215606937 0.8934727061591926 0.8934727061591926 0.8934727061591926 0.8846354635068246 
0.8846354635068246 0.8846354635068246 -0.04748257537871685 -0.04748257537871685 -0.04748257537871685 -0.03991063420195455 -0.03991063420195455 -0.03991063420195455 -0.03765439975662565 
-0.03765439975662565 -0.03765439975662565 -0.8613044379232917 -0.8613044379232917 -0.8613044379232917 -0.8714392494861692 -0.8714392494861692 -0.8714392494861692 -0.8774016387369622 
-0.8774016387369622 -0.8774016387369622 0.6401220508543457 0.6401220508543457 0.6401220508543457 0.6370001800424255 0.6370001800424255 0.6370001800424255 0.64432372387873 
0.64432372387873 0.64432372387873 -0.3089646520671146 -0.3089646520671146 -0.3089646520671146 -0.3306461111290235 -0.3306461111290235 -0.3306461111290235 -0.3220103998831203 
-0.3220103998831203 -0.3220103998831203 -0.5841343072698675 -0.5841343072698675 -0.5841343072698675 -0.581743218420305 -0.581743218420305 -0.581743218420305 -0.5701148703473738 
-0.5701148703473738 -0.5701148703473738 -0.4172150803826056 -0.4172150803826056 -0.4172150803826056 -0.4032855628447465 -0.4032855628447465 -0.4032855628447465 -0.395949097061391 
-0.395949097061391 -0.395949097061391 -0.0980090958549053 -0.0980090958549053 -0.0980090958549053 -0.1153892946567435 -0.1153892946567435 -0.1153892946567435 0.1644176587958767 
0.1644176587958767 0.1644176587958767 0.1780862630259901 0.1780862630259901 0.1780862630259901 0.1776890278600348 0.1776890278600348 0.1776890278600348 -0.3473616476467097 
-0.3473616476467097 -0.3473616476467097 -0.3362287128935566 -0.3362287128935566 -0.3362287128935566 -0.3391320974287935 -0.3391320974287935 -0.3391320974287935 -0.3037333534681248 
-0.3037333534681248 -0.3037333534681248 -0.2924356738235502 -0.2924356738235502 -0.2924356738235502 -0.283833260286294 -0.283833260286294 -0.283833260286294 0.6925815964525326 
0.6925815964525326 0.6925815964525326 0.6811184566160358 0.6811184566160358 0.6811184566160358 0.6814704992833825 0.6814704992833825 0.6814704992833825 0.1292551886432601 
0.1292551886432601 0.1292551886432601 0.1303636797246063 0.1303636797246063 0.1303636797246063 0.1224740946315849 0.1224740946315849 0.1224740946315849 0.6427074362425853 
0.6427074362425853 0.6427074362425853 0.6310035257699765 0.6310035257699765 0.6310035257699765 0.6198632664223285 0.6198632664223285 0.6198632664223285 0.7051544575018724 
0.7051544575018724 0.7051544575018724 0.7189761482539705 0.7189761482539705 0.7189761482539705 0.1288241122951336 0.1288241122951336 0.1288241122951336 0.1263524489635979 
0.1263524489635979 0.1263524489635979 0.4168873790892956 0.4168873790892956 0.4168873790892956 0.3986621500170371 0.3986621500170371 0.3986621500170371 0.4707782110378704 
0.4707782110378704 0.4707782110378704 0.4787870067747499 0.4787870067747499 0.4787870067747499 0.2303867816598723 0.2303867816598723 0.2303867816598723 0.2137817429424777 
0.2137817429424777 0.2137817429424777 0.4773038746763345 0.4773038746763345 0.4773038746763345 0.4892707591960903 0.4892707591960903 0.4892707591960903 0.9256059939902385 
0.9256059939902385 0.9256059939902385 0.9204660697310061 0.9204660697310061 0.9204660697310061 -0.2519677532850196 -0.2519677532850196 -0.2519677532850196 -0.2654589611006911 
-0.2654589611006911 -0.2654589611006911 -0.6062243701954071 -0.6062243701954071 -0.6062243701954071 -0.599898674060686 -0.599898674060686 -0.599898674060686 -0.1289651215264415 
-0.1289651215264415 -0.1289651215264415 -0.1418237296977438 -0.1418237296977438 -0.1418237296977438 -0.5715925618521918 -0.5715925618521918 -0.5715925618521918 -0.563185392065384 
-0.563185392065384 -0.563185392065384 -0.6953481642632544 -0.6953481642632544 -0.6953481642632544 -0.6850630703084365 -0.6850630703084365 -0.6850630703084365 0.1113902833805598 
0.1113902833805598 0.1113902833805598 0.1185073848786155 0.1185073848786155 0.1185073848786155 0.8921296691000867 0.8921296691000867 0.8921296691000867 0.8879980034904448 
0.8879980034904448 0.8879980034904448 0.8185603371972872 0.8185603371972872 0.8185603371972872 0.8087887438798782 0.8087887438798782 0.8087887438798782 0.5803975053926005 
0.5803975053926005 0.5803975053926005 0.5718068226392972 0.5718068226392972 0.5718068226392972 -0.8091129341395601 -0.8091129341395601 -0.8091129341395601 -0.8277265817001834 
-0.8277265817001834 -0.8277265817001834 -0.04725872721343117 -0.04725872721343117 -0.04725872721343117 -0.05241591103000227 -0.05241591103000227 -0.05241591103000227 0.7950301736568374 
0.7950301736568374 0.7950301736568374 0.7823716241734896 0.7823716241734896 0.7823716241734896 -0.710820989293667 -0.710820989293667 -0.710820989293667 -0.7160112878242458 
-0.7160112878242458 -0.7160112878242458 -0.9284747544682146 -0.9284747544682146 -0.9284747544682146 -0.9337062165074406 -0.9337062165074406 -0.9337062165074406 -0.6133237694554211 
-0.6133237694554211 -0.6133237694554211 -0.6232201295965302 -0.6232201295965302 -0.6232201295965302 0.5149924135620026 0.5149924135620026 0.5149924135620026 0.502995125494681 
0.502995125494681 0.502995125494681 -0.7188642337796438 -0.7188642337796438 -0.7188642337796438 -0.7127270264422838 -0.7127270264422838 -0.7127270264422838 -0.5162701045781337 
-0.5162701045781337 -0.5162701045781337 -0.5423415716466516 -0.5423415716466516 -0.5423415716466516 -0.3709984577697006 -0.3709984577697006 -0.3709984577697006 -0.3861525796131591 
-0.3861525796131591 -0.3861525796131591 0.05361661256198481 0.05361661256198481 0.05361661256198481 0.04205835540279623 0.04205835540279623 0.04205835540279623 0.1572942571126235 
0.1572942571126235 0.1572942571126235 0.1503999789644802 0.1503999789644802 0.1503999789644802 -0.177954749649874 -0.177954749649874 -0.177954749649874 -0.1936397162173888 
-0.1936397162173888 -0.1936397162173888 0.4320989107062015 0.4320989107062015 0.4320989107062015 0.4223272655673393 0.4223272655673393 0.4223272655673393 -0.6041659993445857 
-0.6041659993445857 -0.6041659993445857 -0.5868172157465779 -0.5868172157465779 -0.5868172157465779 -0.8696611914679633 -0.8696611914679633 -0.8696611914679633 -0.8767575208162646 
-0.8767575208162646 -0.8767575208162646 0.1399351374674676 0.1399351374674676 0.1399351374674676 0.1511621045903274 0.1511621045903274 0.1511621045903274 -0.03746169249585825 
-0.03746169249585825 -0.03746169249585825 -0.0319031344218084 -0.0319031344218084 -0.0319031344218084 -0.03610551710055524 -0.03610551710055524 -0.03610551710055524 -0.03554390128525122 
-0.03554390128525122 -0.03554390128525122 -0.239193030010861 -0.239193030010861 -0.239193030010861 -0.2437858657368067 -0.2437858657368067 -0.2437858657368067 0.2014969352075895 
0.2014969352075895 0.2014969352075895 0.211938136429573 0.211938136429573 0.211938136429573 -0.8531940376983991 -0.8531940376983991 -0.8531940376983991 -0.8598094387131916 
-0.8598094387131916 -0.8598094387131916 -0.2138067856161951 -0.2138067856161951 -0.2138067856161951 -0.2078724597793839 -0.2078724597793839 -0.2078724597793839 -0.04887219626322394 
-0.04887219626322394 -0.04887219626322394 -0.08426228328235957 -0.08426228328235957 -0.08426228328235957 -0.175065159612569 -0.175065159612569 -0.175065159612569 -0.1867737638757807 
-0.1867737638757807 -0.1867737638757807 0.7432161448266406 0.7432161448266406 0.7432161448266406 0.7316941505677776 0.7316941505677776 0.7316941505677776 0.7661085547072743 
0.7661085547072743 0.7661085547072743 0.7777084912492203 0.7777084912492203 0.7777084912492203 0.1637495820421007 0.1637495820421007 0.1637495820421007 0.1660374179842202 
0.1660374179842202 0.1660374179842202 -0.8213476770520329 -0.8213476770520329 -0.8213476770520329 -0.8110544238051073 -0.8110544238051073 -0.8110544238051073 -0.5825496394564641 
-0.5825496394564641 -0.5825496394564641 -0.5701948632885588 -0.5701948632885588 -0.5701948632885588 0.2800420243779065 0.2800420243779065 0.2800420243779065 0.2724481072190717 
0.2724481072190717 0.2724481072190717 -0.8044116987771317 -0.8044116987771317 -0.8044116987771317 -0.7935317348153978 -0.7935317348153978 -0.7935317348153978 -0.5868531384324546 
-0.5868531384324546 -0.5868531384324546 -0.5910916986071578 -0.5910916986071578 -0.5910916986071578 -0.02393921069247245 -0.02393921069247245 -0.02393921069247245 -0.0425347015792936 
-0.0425347015792936 -0.0425347015792936 -0.4122922541297766 -0.4122922541297766 -0.4122922541297766 -0.4149593961393071 -0.4149593961393071 -0.4149593961393071 0.2418886095762685 
0.2418886095762685 0.2418886095762685 0.2313680480272748 0.2313680480272748 0.2313680480272748 0.5355345400521465 0.5355345400521465 0.5355345400521465 0.5115356915075803 
0.5115356915075803 0.5115356915075803 -0.1988479755333763 -0.1988479755333763 -0.1988479755333763 -0.2028310730955581 -0.2028310730955581 -0.2028310730955581 0.04719847585703523 
0.04719847585703523 0.04719847585703523 0.03401751268954685 0.03401751268954685 0.03401751268954685 -0.6140705849916828 -0.6140705849916828 -0.6140705849916828 -0.6002180070313127 
-0.6002180070313127 -0.6002180070313127 -0.1495661157376215 -0.1495661157376215 -0.1495661157376215 -0.1645247811317138 -0.1645247811317138 -0.1645247811317138 -0.6103865462732996 
-0.6103865462732996 -0.6103865462732996 -0.5969865363322724 -0.5969865363322724 -0.5969865363322724 -0.4517406405490162 -0.4517406405490162 -0.4517406405490162 -0.4425735780279005 
-0.4425735780279005 -0.4425735780279005 -0.02296239838517184 -0.02296239838517184 -0.02296239838517184 -0.007233218092319056 -0.007233218092319056 -0.007233218092319056 0.4120472723500951 
0.4120472723500951 0.4120472723500951 0.4204822063460384 0.4204822063460384 0.4204822063460384 0.9598545252601937 0.9598545252601937 0.9598545252601937 0.9651343001373607 
0.9651343001373607 0.9651343001373607 -0.4689910599842812 -0.4689910599842812 -0.4689910599842812 -0.4749981278729574 -0.4749981278729574 -0.4749981278729574 -0.7875031771673663 
-0.7875031771673663 -0.7875031771673663 -0.7778508297310198 -0.7778508297310198 -0.7778508297310198 -0.5358711615023013 -0.5358711615023013 -0.5358711615023013 -0.5316546561843998 
-0.5316546561843998 -0.5316546561843998 0.5606980834449224 0.5606980834449224 0.5606980834449224 0.5752411742077671 0.5752411742077671 0.5752411742077671 0.4938923368062511 
0.4938923368062511 0.4938923368062511 0.4819275717526805 0.4819275717526805 0.4819275717526805 -0.8674649220431202 -0.8674649220431202 -0.8674649220431202 -0.8633438096771657 
-0.8633438096771657 -0.8633438096771657 -0.1402082663471483 -0.1402082663471483 -0.1402082663471483 -0.1509552357520979 -0.1509552357520979 -0.1509552357520979 -0.02810301648866288 
-0.02810301648866288 -0.02810301648866288 -0.03463348859807098 -0.03463348859807098 -0.03463348859807098 0.6927874347894923 0.6927874347894923 0.6927874347894923 0.685368993251375 
0.685368993251375 0.685368993251375 -0.5588413482577339 -0.5588413482577339 -0.5588413482577339 -0.5730234054980602 -0.5730234054980602 -0.5730234054980602 -0.1793970854344787 
-0.1793970854344787 -0.1793970854344787 -0.1598049817469239 -0.1598049817469239 -0.1598049817469239 -0.09867920396069238 -0.09867920396069238 -0.09867920396069238 -0.1032373607343648 
-0.1032373607343648 -0.1032373607343648 -0.3359081674474779 -0.3359081674474779 -0.3359081674474779 -0.3482745567939396 -0.3482745567939396 -0.3482745567939396 0.2163834442181376 
0.2163834442181376 0.2163834442181376 0.2248494949170582 0.2248494949170582 0.2248494949170582 0.5153467502344434 0.5153467502344434 0.5153467502344434 0.4993276090130265 
0.4993276090130265 0.4993276090130265 -0.6935364659418209 -0.6935364659418209 -0.6935364659418209 -0.7079282803791651 -0.7079282803791651 -0.7079282803791651 0.6205075635891346 
0.6205075635891346 0.6205075635891346 0.6358767734296196 0.6358767734296196 0.6358767734296196 0.9354011164385728 0.9354011164385728 0.9354011164385728 0.9320304220251936 
0.9320304220251936 0.9320304220251936 -0.3917995496801636 -0.3917995496801636 -0.3917995496801636 -0.4077511610333148 -0.4077511610333148 -0.4077511610333148 0.1461305291624382 
0.1461305291624382 0.1461305291624382 0.1422197626221496 0.1422197626221496 0.1422197626221496 -0.4049500561235356 -0.4049500561235356 -0.4049500561235356 -0.4200602482938065 
-0.4200602482938065 -0.4200602482938065 -0.7424357160580424 -0.7424357160580424 -0.7424357160580424 -0.7553009348364806 -0.7553009348364806 -0.7553009348364806 -0.8656196027377689 
-0.8656196027377689 -0.8656196027377689 -0.8654058286914237 -0.8654058286914237 -0.8654058286914237 0.5768893892778735 0.5768893892778735 0.5768893892778735 0.5706493632583591 
0.5706493632583591 0.5706493632583591 0.05769690017589284 0.05769690017589284 0.05769690017589284 0.05298577881976441 0.05298577881976441 0.05298577881976441 0.1244771406262805 
0.1244771406262805 0.1244771406262805 0.1345140709217624 0.1345140709217624 0.1345140709217624 -0.003329396980517426 -0.003329396980517426 -0.003329396980517426 -0.005524628811203357 
-0.005524628811203357 -0.005524628811203357 -0.3711592829627866 -0.3711592829627866 -0.3711592829627866 -0.3837377746600142 -0.3837377746600142 -0.3837377746600142 -0.1215682419834903 
-0.1215682419834903 -0.1215682419834903 -0.1327468292816575 -0.1327468292816575 -0.1327468292816575 0.3189596601829743 0.3189596601829743 0.3189596601829743 0.2879047042770974 
0.2879047042770974 0.2879047042770974 0.3290617221070136 0.3290617221070136 0.3290617221070136 0.3251420452332823 0.3251420452332823 0.3251420452332823 -0.3395168772092864 
-0.3395168772092864 -0.3395168772092864 -0.3505000194140364 -0.3505000194140364 -0.3505000194140364 0.3518335184110273 0.3518335184110273 0.3518335184110273 0.340460207072777 
0.340460207072777 0.340460207072777 -0.09811729035306221 -0.09811729035306221 -0.09811729035306221 -0.08245866285230319 -0.08245866285230319 -0.08245866285230319 -0.3926793740178202 
-0.3926793740178202 -0.3926793740178202 -0.3954990727487789 -0.3954990727487789 -0.3954990727487789 0.7067218514045484 0.7067218514045484 0.7067218514045484 0.7145317039460563 
0.7145317039460563 0.7145317039460563 -0.06497640230371692 -0.06497640230371692 -0.06497640230371692 -0.07277241154561467 -0.07277241154561467 -0.07277241154561467 0.3959990857476327 