Title = Triangle150
FileType = Solution
Variables = q
Zone T = Triangle150
ZoneType = FETriangle
Nodes = 212082
Elements = 70694
DataPacking = Block
StrandID = 13
SolutionTime = 1.2
-0.1685047987919669 -0.1685047987919669 -0.1685047987919669 -0.1571813553887267 -0.1571813553887267 -0.1571813553887267 -0.1601108322533833 -0.1601108322533833 -0.1601108322533833 0.1491583630794124 
0.1491583630794124 0.1491583630794124 0.1398752714843803 0.1398752714843803 0.1398752714843803 0.129094833870888 0.129094833870888 0.129094833870888 -0.1412226294911234 
-0.1412226294911234 -0.1412226294911234 -0.1134157223197397 -0.1134157223197397 -0.1134157223197397 -0.09429374687366504 -0.09429374687366504 -0.09429374687366504 -0.7625864148280519 
-0.7625864148280519 -0.7625864148280519 -0.769560397202132 -0.769560397202132 -0.769560397202132 -0.7763768014721286 -0.7763768014721286 -0.7763768014721286 0.05602636423723381 
0.05602636423723381 0.05602636423723381 0.07519597031089444 0.07519597031089444 0.07519597031089444 0.07087361601742349 0.07087361601742349 0.07087361601742349 0.89657081703134 
0.89657081703134 0.89657081703134 0.8971203532928713 0.8971203532928713 0.8971203532928713 0.8987896607818824 0.8987896607818824 0.8987896607818824 0.5805451550778509 
0.5805451550778509 0.5805451550778509 0.5629525615462685 0.5629525615462685 0.5629525615462685 -0.6974351758421041 -0.6974351758421041 -0.6974351758421041 -0.7059346392081089 
-0.7059346392081089 -0.7059346392081089 0.0288705141115236 0.0288705141115236 0.0288705141115236 0.04429495412939508 0.04429495412939508 0.04429495412939508 0.08788221897775966 
0.08788221897775966 0.08788221897775966 0.09099891301117292 0.09099891301117292 0.09099891301117292 0.08814922502935192 0.08814922502935192 0.08814922502935192 0.08292218072107845 
0.08292218072107845 0.08292218072107845 -0.6426867618322053 -0.6426867618322053 -0.6426867618322053 -0.6347642780417249 -0.6347642780417249 -0.6347642780417249 -0.2758251541093354 
-0.2758251541093354 -0.2758251541093354 -0.2747212949378551 -0.2747212949378551 -0.2747212949378551 -0.2375926543277005 -0.2375926543277005 -0.2375926543277005 -0.231658643996174 
-0.231658643996174 -0.231658643996174 0.7675848359285178 0.7675848359285178 0.7675848359285178 0.7705621153898339 0.7705621153898339 0.7705621153898339 0.5730688978165638 
0.5730688978165638 0.5730688978165638 0.5655608911727628 0.5655608911727628 0.5655608911727628 -0.08737700294276392 -0.08737700294276392 -0.08737700294276392 -0.08243351894458129 
-0.08243351894458129 -0.08243351894458129 -0.2609388203476141 -0.2609388203476141 -0.2609388203476141 -0.2735629382243826 -0.2735629382243826 -0.2735629382243826 -0.1329073800089494 
-0.1329073800089494 -0.1329073800089494 -0.13688992617882 -0.13688992617882 -0.13688992617882 -0.742933796559783 -0.742933796559783 -0.742933796559783 -0.7449131550511715 
-0.7449131550511715 -0.7449131550511715 -0.03919991290496024 -0.03919991290496024 -0.03919991290496024 -0.04784549831595766 -0.04784549831595766 -0.04784549831595766 0.09130861876329006 
0.09130861876329006 0.09130861876329006 0.08316845815666483 0.08316845815666483 0.08316845815666483 0.5465160366603161 0.5465160366603161 0.5465160366603161 0.531436213472146 
0.531436213472146 0.531436213472146 -0.2473642764759739 -0.2473642764759739 -0.2473642764759739 -0.2502946599547671 -0.2502946599547671 -0.2502946599547671 0.1134057450755838 
0.1134057450755838 0.1134057450755838 0.1149959109166312 0.1149959109166312 0.1149959109166312 0.5177523597639527 0.5177523597639527 0.5177523597639527 0.5336866605306276 
0.5336866605306276 0.5336866605306276 0.5918724841300157 0.5918724841300157 0.5918724841300157 0.5720766008101875 0.5720766008101875 0.5720766008101875 0.09512906098295321 
0.09512906098295321 0.09512906098295321 0.1006688739114737 0.1006688739114737 0.1006688739114737 -0.306093885474615 -0.306093885474615 -0.306093885474615 -0.3000995694157139 
-0.3000995694157139 -0.3000995694157139 -0.05254725390532723 -0.05254725390532723 -0.05254725390532723 -0.05742790390360848 -0.05742790390360848 -0.05742790390360848 -0.2345328356232516 
-0.2345328356232516 -0.2345328356232516 -0.2431202503034002 -0.2431202503034002 -0.2431202503034002 -0.6956585371684786 -0.6956585371684786 -0.6956585371684786 -0.6906979867076621 
-0.6906979867076621 -0.6906979867076621 -0.1202973234258798 -0.1202973234258798 -0.1202973234258798 -0.1155929846348688 -0.1155929846348688 -0.1155929846348688 -0.1490101624994379 
-0.1490101624994379 -0.1490101624994379 -0.1565386049801307 -0.1565386049801307 -0.1565386049801307 0.3232966038483643 0.3232966038483643 0.3232966038483643 0.3184820098251121 
0.3184820098251121 0.3184820098251121 0.5997265045267997 0.5997265045267997 0.5997265045267997 0.6096179393262635 0.6096179393262635 0.6096179393262635 -0.2257221059476607 
-0.2257221059476607 -0.2257221059476607 -0.2173984598086465 -0.2173984598086465 -0.2173984598086465 0.2713614036115481 0.2713614036115481 0.2713614036115481 0.2798892372642805 
0.2798892372642805 0.2798892372642805 -0.5025433461695618 -0.5025433461695618 -0.5025433461695618 -0.4846442239723798 -0.4846442239723798 -0.4846442239723798 0.5261602053398 
0.5261602053398 0.5261602053398 0.5323811503053725 0.5323811503053725 0.5323811503053725 0.3243384440475869 0.3243384440475869 0.3243384440475869 0.3173154730284786 
0.3173154730284786 0.3173154730284786 -0.8648689574159962 -0.8648689574159962 -0.8648689574159962 -0.8676780300524807 -0.8676780300524807 -0.8676780300524807 -0.7027772333793123 
-0.7027772333793123 -0.7027772333793123 -0.7118380775174368 -0.7118380775174368 -0.7118380775174368 -0.1503112553435503 -0.1503112553435503 -0.1503112553435503 -0.2879578252474859 
-0.2879578252474859 -0.2879578252474859 -0.2960104527077918 -0.2960104527077918 -0.2960104527077918 0.6803060993889353 0.6803060993889353 0.6803060993889353 0.6784493244045017 
0.6784493244045017 0.6784493244045017 0.05441910130471812 0.05441910130471812 0.05441910130471812 0.05120979632708814 0.05120979632708814 0.05120979632708814 0.5707822701957943 
0.5707822701957943 0.5707822701957943 0.573499373870815 0.573499373870815 0.573499373870815 0.2177958128125035 0.2177958128125035 0.2177958128125035 0.2104324243463374 
0.2104324243463374 0.2104324243463374 0.6203993530717006 0.6203993530717006 0.6203993530717006 0.01474856777254308 0.01474856777254308 0.01474856777254308 -0.7285081227762779 
-0.7285081227762779 -0.7285081227762779 0.1706985429573719 0.1706985429573719 0.1706985429573719 -0.4935241231156791 -0.4935241231156791 -0.4935241231156791 -0.09206308001570597 
-0.09206308001570597 -0.09206308001570597 0.6875317024322373 0.6875317024322373 0.6875317024322373 0.678165725406201 0.678165725406201 0.678165725406201 0.009455789848034801 
0.009455789848034801 0.009455789848034801 -0.09656298724533849 -0.09656298724533849 -0.09656298724533849 -0.301105127627599 -0.301105127627599 -0.301105127627599 0.7857761366780249 
0.7857761366780249 0.7857761366780249 0.778920846742616 0.778920846742616 0.778920846742616 -0.8959846611635026 -0.8959846611635026 -0.8959846611635026 -0.8957477927495767 
-0.8957477927495767 -0.8957477927495767 -0.02229273561793466 -0.02229273561793466 -0.02229273561793466 -0.03546410387128619 -0.03546410387128619 -0.03546410387128619 -0.1984167397149187 
-0.1984167397149187 -0.1984167397149187 -0.1720194858769815 -0.1720194858769815 -0.1720194858769815 0.4378687367511229 0.4378687367511229 0.4378687367511229 0.4115555842535739 
0.4115555842535739 0.4115555842535739 0.03624048856879153 0.03624048856879153 0.03624048856879153 0.02405968406490711 0.02405968406490711 0.02405968406490711 -0.6232748492587492 
-0.6232748492587492 -0.6232748492587492 -0.5999374723729598 -0.5999374723729598 -0.5999374723729598 0.2769418685574373 0.2769418685574373 0.2769418685574373 0.292067924267263 
0.292067924267263 0.292067924267263 0.7180196670577346 0.7180196670577346 0.7180196670577346 0.7189334806572215 0.7189334806572215 0.7189334806572215 0.2352791155712586 
0.2352791155712586 0.2352791155712586 0.2097494168912104 0.2097494168912104 0.2097494168912104 0.7479709581519228 0.7479709581519228 0.7479709581519228 0.7404052617538797 
0.7404052617538797 0.7404052617538797 0.01214769264251256 0.01214769264251256 0.01214769264251256 0.0240298594692397 0.0240298594692397 0.0240298594692397 0.888783165599782 
0.888783165599782 0.888783165599782 0.8854107179614594 0.8854107179614594 0.8854107179614594 -0.3365854344459068 -0.3365854344459068 -0.3365854344459068 -0.3722152214520931 
-0.3722152214520931 -0.3722152214520931 -0.1000454589813102 -0.1000454589813102 -0.1000454589813102 -0.1128327836434806 -0.1128327836434806 -0.1128327836434806 0.7607079279077937 
0.7607079279077937 0.7607079279077937 0.7480121601954177 0.7480121601954177 0.7480121601954177 -0.1480271866103272 -0.1480271866103272 -0.1480271866103272 -0.1259319063706447 
-0.1259319063706447 -0.1259319063706447 -0.7275591682327046 -0.7275591682327046 -0.7275591682327046 -0.7205675454696896 -0.7205675454696896 -0.7205675454696896 -0.05656034154952412 
-0.05656034154952412 -0.05656034154952412 -0.08300965491039494 -0.08300965491039494 -0.08300965491039494 0.1962662381773079 0.1962662381773079 0.1962662381773079 0.2091737853961652 
0.2091737853961652 0.2091737853961652 -0.229629208042897 -0.229629208042897 -0.229629208042897 -0.2656661717103121 -0.2656661717103121 -0.2656661717103121 0.7938013319978845 
0.7938013319978845 0.7938013319978845 0.8017113938852329 0.8017113938852329 0.8017113938852329 0.2775625058793868 0.2775625058793868 0.2775625058793868 0.2863751080611228 
0.2863751080611228 0.2863751080611228 -0.4285766883281192 -0.4285766883281192 -0.4285766883281192 -0.4485719821757937 -0.4485719821757937 -0.4485719821757937 0.3038105766958678 
0.3038105766958678 0.3038105766958678 0.3267039145787717 0.3267039145787717 0.3267039145787717 0.1134351803934346 0.1134351803934346 0.1134351803934346 0.1049871053111225 
0.1049871053111225 0.1049871053111225 -0.2679795462562485 -0.2679795462562485 -0.2679795462562485 -0.2522398190338882 -0.2522398190338882 -0.2522398190338882 0.01194918860118747 
0.01194918860118747 0.01194918860118747 -0.008020284143960169 -0.008020284143960169 -0.008020284143960169 -0.1478335935824793 -0.1478335935824793 -0.1478335935824793 -0.1312114470820941 
-0.1312114470820941 -0.1312114470820941 -0.7802079240317059 -0.7802079240317059 -0.7802079240317059 -0.7764529754627023 -0.7764529754627023 -0.7764529754627023 0.008944917394365811 
0.008944917394365811 0.008944917394365811 0.006358320261128964 0.006358320261128964 0.006358320261128964 -0.03410644642733085 -0.03410644642733085 -0.03410644642733085 -0.03271740500781031 
-0.03271740500781031 -0.03271740500781031 0.2494815736272664 0.2494815736272664 0.2494815736272664 0.2282854245585636 0.2282854245585636 0.2282854245585636 -0.7424841869380157 
-0.7424841869380157 -0.7424841869380157 -0.7255317259948458 -0.7255317259948458 -0.7255317259948458 0.1933874183272289 0.1933874183272289 0.1933874183272289 0.2172476152088122 
0.2172476152088122 0.2172476152088122 0.3664543050316735 0.3664543050316735 0.3664543050316735 0.3879955275755472 0.3879955275755472 0.3879955275755472 0.7420102699481277 
0.7420102699481277 0.7420102699481277 0.756753270196598 0.756753270196598 0.756753270196598 0.6450254409364296 0.6450254409364296 0.6450254409364296 0.6137845809518795 
0.6137845809518795 0.6137845809518795 0.7268596738961081 0.7268596738961081 0.7268596738961081 0.724570986797347 0.724570986797347 0.724570986797347 0.4615225447883585 
0.4615225447883585 0.4615225447883585 0.4520018185875874 0.4520018185875874 0.4520018185875874 -0.2039663486402772 -0.2039663486402772 -0.2039663486402772 -0.18752926329311 
-0.18752926329311 -0.18752926329311 -0.6851131199133411 -0.6851131199133411 -0.6851131199133411 -0.6882893421356229 -0.6882893421356229 -0.6882893421356229 -0.2078051674499004 
-0.2078051674499004 -0.2078051674499004 -0.1962943914443433 -0.1962943914443433 -0.1962943914443433 0.2766200367546666 0.2766200367546666 0.2766200367546666 0.2621765822324448 
0.2621765822324448 0.2621765822324448 -0.7589084620827071 -0.7589084620827071 -0.7589084620827071 -0.7417516193256868 -0.7417516193256868 -0.7417516193256868 -0.6547132082020103 
-0.6547132082020103 -0.6547132082020103 -0.6585211382971539 -0.6585211382971539 -0.6585211382971539 0.4179463556019112 0.4179463556019112 0.4179463556019112 0.3917732597272454 
0.3917732597272454 0.3917732597272454 0.593033196514257 0.593033196514257 0.593033196514257 0.5707442157737248 0.5707442157737248 0.5707442157737248 -0.1335399758936948 
-0.1335399758936948 -0.1335399758936948 -0.1150121948103863 -0.1150121948103863 -0.1150121948103863 0.09507411010695066 0.09507411010695066 0.09507411010695066 0.1317079574680992 
0.1317079574680992 0.1317079574680992 -0.09356744735287383 -0.09356744735287383 -0.09356744735287383 -0.09003921978382867 -0.09003921978382867 -0.09003921978382867 0.7734253883537253 
0.7734253883537253 0.7734253883537253 0.7711308284895406 0.7711308284895406 0.7711308284895406 -0.8527996179005634 -0.8527996179005634 -0.8527996179005634 -0.8423009190513207 
-0.8423009190513207 -0.8423009190513207 -0.20520993783527 -0.20520993783527 -0.20520993783527 -0.1730357597915395 -0.1730357597915395 -0.1730357597915395 0.4534712053121575 
0.4534712053121575 0.4534712053121575 0.478322568959964 0.478322568959964 0.478322568959964 -0.06305988193429107 -0.06305988193429107 -0.06305988193429107 -0.04207578352002709 
-0.04207578352002709 -0.04207578352002709 -0.05911978341776686 -0.05911978341776686 -0.05911978341776686 -0.06122302736044813 -0.06122302736044813 -0.06122302736044813 -0.3983730939349953 
-0.3983730939349953 -0.3983730939349953 -0.3725897375852948 -0.3725897375852948 -0.3725897375852948 -0.1045953686966517 -0.1045953686966517 -0.1045953686966517 -0.1090702664588668 
-0.1090702664588668 -0.1090702664588668 0.2888082236019558 0.2888082236019558 0.2888082236019558 0.2761085829356536 0.2761085829356536 0.2761085829356536 0.6564645121963116 
0.6564645121963116 0.6564645121963116 0.6408461523166482 0.6408461523166482 0.6408461523166482 0.02173406061934878 0.02173406061934878 0.02173406061934878 0.04971298766768712 
0.04971298766768712 0.04971298766768712 0.4551735458609135 0.4551735458609135 0.4551735458609135 0.4780209832202534 0.4780209832202534 0.4780209832202534 0.642134930068412 
0.642134930068412 0.642134930068412 0.6352503824975241 0.6352503824975241 0.6352503824975241 0.079105882014202 0.079105882014202 0.079105882014202 0.09291182389923147 
0.09291182389923147 0.09291182389923147 0.61061965975193 0.61061965975193 0.61061965975193 0.633224859048686 0.633224859048686 0.633224859048686 0.3027094611177446 
0.3027094611177446 0.3027094611177446 0.3076643991576407 0.3076643991576407 0.3076643991576407 -0.7520157252473495 -0.7520157252473495 -0.7520157252473495 -0.7455687202876238 
-0.7455687202876238 -0.7455687202876238 -0.7414445569877088 -0.7414445569877088 -0.7414445569877088 -0.7666657045833165 -0.7666657045833165 -0.7666657045833165 0.7090124752322502 
0.7090124752322502 0.7090124752322502 0.7105130828927333 0.7105130828927333 0.7105130828927333 0.6907735502543451 0.6907735502543451 0.6907735502543451 -0.8693460832233433 
-0.8693460832233433 -0.8693460832233433 -0.8714329172950658 -0.8714329172950658 -0.8714329172950658 -0.8676973943018794 -0.8676973943018794 -0.8676973943018794 -0.8667228406108289 
-0.8667228406108289 -0.8667228406108289 0.1497196856741121 0.1497196856741121 0.1497196856741121 0.1595767025485738 0.1595767025485738 0.1595767025485738 0.1673723973481608 
0.1673723973481608 0.1673723973481608 -0.4133101213897087 -0.4133101213897087 -0.4133101213897087 -0.4016988586951534 -0.4016988586951534 -0.4016988586951534 -0.4048225355658941 
-0.4048225355658941 -0.4048225355658941 -0.4718780607438376 -0.4718780607438376 -0.4718780607438376 -0.4739998095193001 -0.4739998095193001 -0.4739998095193001 -0.4839884456792881 
-0.4839884456792881 -0.4839884456792881 0.3440167514211174 0.3440167514211174 0.3440167514211174 0.3511443318639192 0.3511443318639192 0.3511443318639192 0.3587197678297936 
0.3587197678297936 0.3587197678297936 0.4799221507567129 0.4799221507567129 0.4799221507567129 0.4676508520257568 0.4676508520257568 0.4676508520257568 0.4733480871615979 
0.4733480871615979 0.4733480871615979 0.1004889860173062 0.1004889860173062 0.1004889860173062 0.09350459528825478 0.09350459528825478 0.09350459528825478 0.08749649322692413 
0.08749649322692413 0.08749649322692413 -0.07525115772374019 -0.07525115772374019 -0.07525115772374019 -0.057240660663048 -0.057240660663048 -0.057240660663048 -0.05593572263579616 
-0.05593572263579616 -0.05593572263579616 0.4580043581779086 0.4580043581779086 0.4580043581779086 0.4458056927648981 0.4458056927648981 0.4458056927648981 0.4359714890203163 
0.4359714890203163 0.4359714890203163 0.167230346643701 0.167230346643701 0.167230346643701 0.1624608098105195 0.1624608098105195 0.1624608098105195 0.1426446813156254 
0.1426446813156254 0.1426446813156254 0.6835889017614443 0.6835889017614443 0.6835889017614443 0.6821933985484218 0.6821933985484218 0.6821933985484218 0.2396417735777307 
0.2396417735777307 0.2396417735777307 0.2214354162641884 0.2214354162641884 0.2214354162641884 0.2206143544852238 0.2206143544852238 0.2206143544852238 0.08365361003176067 
0.08365361003176067 0.08365361003176067 0.08743977766183655 0.08743977766183655 0.08743977766183655 0.08734788017859679 0.08734788017859679 0.08734788017859679 -0.5068528960829908 
-0.5068528960829908 -0.5068528960829908 -0.513081985963768 -0.513081985963768 -0.513081985963768 -0.5036646899662114 -0.5036646899662114 -0.5036646899662114 0.2027719881022272 
0.2027719881022272 0.2027719881022272 0.2086743173935557 0.2086743173935557 0.2086743173935557 0.2228003311487682 0.2228003311487682 0.2228003311487682 0.4159709573184038 
0.4159709573184038 0.4159709573184038 0.4076129782096475 0.4076129782096475 0.4076129782096475 0.3967898172153794 0.3967898172153794 0.3967898172153794 -0.07923586172184442 
-0.07923586172184442 -0.07923586172184442 -0.07185376201484781 -0.07185376201484781 -0.07185376201484781 -0.06760482341959678 -0.06760482341959678 -0.06760482341959678 -0.07265090820680545 
-0.07265090820680545 -0.07265090820680545 -0.07846755127147591 -0.07846755127147591 -0.07846755127147591 0.05279692324601651 0.05279692324601651 0.05279692324601651 0.04551823669056837 
0.04551823669056837 0.04551823669056837 0.5997137872714866 0.5997137872714866 0.5997137872714866 0.6073844249032365 0.6073844249032365 0.6073844249032365 -0.1852508654365588 
-0.1852508654365588 -0.1852508654365588 -0.1788947711611933 -0.1788947711611933 -0.1788947711611933 0.1622440741341824 0.1622440741341824 0.1622440741341824 0.1741163999836292 
0.1741163999836292 0.1741163999836292 0.4936998694765665 0.4936998694765665 0.4936998694765665 0.4811130714207852 0.4811130714207852 0.4811130714207852 -0.4187428534562081 
-0.4187428534562081 -0.4187428534562081 -0.4398665433073524 -0.4398665433073524 -0.4398665433073524 0.05853326178585928 0.05853326178585928 0.05853326178585928 0.05338339951610961 
0.05338339951610961 0.05338339951610961 -0.35628360491383 -0.35628360491383 -0.35628360491383 -0.3753403404726592 -0.3753403404726592 -0.3753403404726592 0.2598326784838422 
0.2598326784838422 0.2598326784838422 0.2543185116080279 0.2543185116080279 0.2543185116080279 0.2722561251516742 0.2722561251516742 0.2722561251516742 0.2503708873116409 
0.2503708873116409 0.2503708873116409 0.7571125749880677 0.7571125749880677 0.7571125749880677 0.7674307045025099 0.7674307045025099 0.7674307045025099 -0.7094890020368083 
-0.7094890020368083 -0.7094890020368083 -0.7117814108654632 -0.7117814108654632 -0.7117814108654632 -0.5413400952995699 -0.5413400952995699 -0.5413400952995699 -0.560158884375759 
-0.560158884375759 -0.560158884375759 -0.2304662803976585 -0.2304662803976585 -0.2304662803976585 -0.2226331274095412 -0.2226331274095412 -0.2226331274095412 0.3217812352556976 
0.3217812352556976 0.3217812352556976 0.3370107681466593 0.3370107681466593 0.3370107681466593 -0.0231571807266706 -0.0231571807266706 -0.0231571807266706 -0.01210895025144701 
-0.01210895025144701 -0.01210895025144701 -0.1592295544623534 -0.1592295544623534 -0.1592295544623534 -0.1333554920319706 -0.1333554920319706 -0.1333554920319706 -0.1130280868985996 
-0.1130280868985996 -0.1130280868985996 -0.1080483115716417 -0.1080483115716417 -0.1080483115716417 0.005586387850889808 0.005586387850889808 0.005586387850889808 0.008749807342668312 
0.008749807342668312 0.008749807342668312 0.3393140910441204 0.3393140910441204 0.3393140910441204 0.3579799414069369 0.3579799414069369 0.3579799414069369 -0.2321405973390717 
-0.2321405973390717 -0.2321405973390717 -0.2149612082637345 -0.2149612082637345 -0.2149612082637345 -0.8552717033004714 -0.8552717033004714 -0.8552717033004714 -0.8612100424966372 
-0.8612100424966372 -0.8612100424966372 -0.05094962532811951 -0.05094962532811951 -0.05094962532811951 -0.04316344138604937 -0.04316344138604937 -0.04316344138604937 -0.18979749552899 
-0.18979749552899 -0.18979749552899 -0.1844921976554069 -0.1844921976554069 -0.1844921976554069 0.02362239625453199 0.02362239625453199 0.02362239625453199 0.00929345619346977 
0.00929345619346977 0.00929345619346977 0.7878506052976051 0.7878506052976051 0.7878506052976051 0.7872380450376093 0.7872380450376093 0.7872380450376093 -0.2100635380788581 
-0.2100635380788581 -0.2100635380788581 -0.2157800855802872 -0.2157800855802872 -0.2157800855802872 0.1109408486751795 0.1109408486751795 0.1109408486751795 0.1022118818710899 
0.1022118818710899 0.1022118818710899 -0.06853940492592596 -0.06853940492592596 -0.06853940492592596 -0.07942943002633088 -0.07942943002633088 -0.07942943002633088 0.1629035921586643 
0.1629035921586643 0.1629035921586643 0.1480512825545626 0.1480512825545626 0.1480512825545626 -0.01038393734844873 -0.01038393734844873 -0.01038393734844873 -0.003894239920021706 
-0.003894239920021706 -0.003894239920021706 -0.7089929384208775 -0.7089929384208775 -0.7089929384208775 -0.714388903238739 -0.714388903238739 -0.714388903238739 0.6460481111921519 
0.6460481111921519 0.6460481111921519 0.6188211363626581 0.6188211363626581 0.6188211363626581 0.5481855888946067 0.5481855888946067 0.5481855888946067 0.5456323791592298 
0.5456323791592298 0.5456323791592298 -0.7085964582770884 -0.7085964582770884 -0.7085964582770884 -0.7031641881589664 -0.7031641881589664 -0.7031641881589664 0.5530020702368103 
0.5530020702368103 0.5530020702368103 0.5428155223645392 0.5428155223645392 0.5428155223645392 -0.03627633176933119 -0.03627633176933119 -0.03627633176933119 -0.04947346503671469 
-0.04947346503671469 -0.04947346503671469 0.1531278754372786 0.1531278754372786 0.1531278754372786 0.1508731746804207 0.1508731746804207 0.1508731746804207 0.183056265431962 
0.183056265431962 0.183056265431962 0.1927301971441618 0.1927301971441618 0.1927301971441618 0.1883244208671051 0.1883244208671051 0.1883244208671051 0.1777194718374586 
0.1777194718374586 0.1777194718374586 0.09706356619979759 0.09706356619979759 0.09706356619979759 0.1142395728324148 0.1142395728324148 0.1142395728324148 -0.7042407810072482 
-0.7042407810072482 -0.7042407810072482 -0.697221976760769 -0.697221976760769 -0.697221976760769 0.772676142498706 0.772676142498706 0.772676142498706 0.7643974629884585 
0.7643974629884585 0.7643974629884585 0.3692173287887851 0.3692173287887851 0.3692173287887851 0.3579770682890567 0.3579770682890567 0.3579770682890567 -0.1860044279073765 
-0.1860044279073765 -0.1860044279073765 -0.188009298132297 -0.188009298132297 -0.188009298132297 0.5105327662495964 0.5105327662495964 0.5105327662495964 0.5194705972645439 
0.5194705972645439 0.5194705972645439 0.4331660241923619 0.4331660241923619 0.4331660241923619 0.4164532425748811 0.4164532425748811 0.4164532425748811 -0.2805659676859735 
-0.2805659676859735 -0.2805659676859735 -0.2552952359273505 -0.2552952359273505 -0.2552952359273505 0.5548740265619452 0.5548740265619452 0.5548740265619452 0.5529010354886859 
0.5529010354886859 0.5529010354886859 0.8617882375437758 0.8617882375437758 0.8617882375437758 0.8676798218070273 0.8676798218070273 0.8676798218070273 0.1174568459761819 
0.1174568459761819 0.1174568459761819 0.1189845945367433 0.1189845945367433 0.1189845945367433 -0.8387979768257066 -0.8387979768257066 -0.8387979768257066 -0.8488363665955436 
-0.8488363665955436 -0.8488363665955436 -0.2873854089642319 -0.2873854089642319 -0.2873854089642319 -0.2780269870873647 -0.2780269870873647 -0.2780269870873647 0.4135560715297046 
0.4135560715297046 0.4135560715297046 0.4245480126414261 0.4245480126414261 0.4245480126414261 -0.03001295584379706 -0.03001295584379706 -0.03001295584379706 -0.03095273940924917 
-0.03095273940924917 -0.03095273940924917 0.08695654629213256 0.08695654629213256 0.08695654629213256 0.08101530805599393 0.08101530805599393 0.08101530805599393 -0.04061641436066825 
-0.04061641436066825 -0.04061641436066825 -0.04164914967930585 -0.04164914967930585 -0.04164914967930585 0.04594111834355488 0.04594111834355488 0.04594111834355488 0.04783198289709953 
0.04783198289709953 0.04783198289709953 -0.1775434529819003 -0.1775434529819003 -0.1775434529819003 -0.1899467209482379 -0.1899467209482379 -0.1899467209482379 -0.1634967639342403 
-0.1634967639342403 -0.1634967639342403 -0.1545766023475426 -0.1545766023475426 -0.1545766023475426 -0.4286074444887896 -0.4286074444887896 -0.4286074444887896 -0.4189330951512054 
-0.4189330951512054 -0.4189330951512054 -0.5704581896161455 -0.5704581896161455 -0.5704581896161455 -0.5615374469348937 -0.5615374469348937 -0.5615374469348937 0.3145204537254436 
0.3145204537254436 0.3145204537254436 0.3225613648684337 0.3225613648684337 0.3225613648684337 0.3136228536312258 0.3136228536312258 0.3136228536312258 0.3230374722260587 
0.3230374722260587 0.3230374722260587 0.4173050317931492 0.4173050317931492 0.4173050317931492 0.3999868710980475 0.3999868710980475 0.3999868710980475 0.007552784357017861 
0.007552784357017861 0.007552784357017861 0.01578593878817749 0.01578593878817749 0.01578593878817749 0.5507735660183202 0.5507735660183202 0.5507735660183202 0.5620906154325046 
0.5620906154325046 0.5620906154325046 -0.3080628124206377 -0.3080628124206377 -0.3080628124206377 -0.3063601745914294 -0.3063601745914294 -0.3063601745914294 0.6357417926847881 
0.6357417926847881 0.6357417926847881 0.6429800459400307 0.6429800459400307 0.6429800459400307 0.3332465224248056 0.3332465224248056 0.3332465224248056 0.3432899240609749 
0.3432899240609749 0.3432899240609749 0.8350138559895087 0.8350138559895087 0.8350138559895087 0.8300956005383535 0.8300956005383535 0.8300956005383535 0.1423868524428491 
0.1423868524428491 0.1423868524428491 0.1432505758032258 0.1432505758032258 0.1432505758032258 0.2657895720426079 0.2657895720426079 0.2657895720426079 0.2645204835344453 
0.2645204835344453 0.2645204835344453 -0.1076443639779149 -0.1076443639779149 -0.1076443639779149 -0.09931635593361071 -0.09931635593361071 -0.09931635593361071 0.02789437418481315 
0.02789437418481315 0.02789437418481315 0.03157757409608239 0.03157757409608239 0.03157757409608239 -0.00140907629223764 -0.00140907629223764 -0.00140907629223764 0.009462385600311977 
0.009462385600311977 0.009462385600311977 0.01097437649571996 0.01097437649571996 0.01097437649571996 0.01371100829663139 0.01371100829663139 0.01371100829663139 0.1000902256564206 
0.1000902256564206 0.1000902256564206 0.08627112847410913 0.08627112847410913 0.08627112847410913 -0.3034349923012488 -0.3034349923012488 -0.3034349923012488 -0.3157236090364875 
-0.3157236090364875 -0.3157236090364875 0.06966963267594632 0.06966963267594632 0.06966963267594632 0.07631056998938415 0.07631056998938415 0.07631056998938415 -0.1855646645104662 
-0.1855646645104662 -0.1855646645104662 -0.189055787356889 -0.189055787356889 -0.189055787356889 0.8889377399799262 0.8889377399799262 0.8889377399799262 0.8862508729123559 
0.8862508729123559 0.8862508729123559 0.3061633511733738 0.3061633511733738 0.3061633511733738 0.3359678612751141 0.3359678612751141 0.3359678612751141 -0.02649035535394134 
-0.02649035535394134 -0.02649035535394134 -0.0412434872906976 -0.0412434872906976 -0.0412434872906976 0.09797652930278733 0.09797652930278733 0.09797652930278733 0.1050414358707259 
0.1050414358707259 0.1050414358707259 0.7374926685674583 0.7374926685674583 0.7374926685674583 0.7439123067973898 0.7439123067973898 0.7439123067973898 0.1175578752376549 
0.1175578752376549 0.1175578752376549 0.1074421757601557 0.1074421757601557 0.1074421757601557 0.5418149911971468 0.5418149911971468 0.5418149911971468 0.5470684577451735 
0.5470684577451735 0.5470684577451735 0.37800575399635 0.37800575399635 0.37800575399635 0.3904056390744346 0.3904056390744346 0.3904056390744346 -0.1178183239075536 
-0.1178183239075536 -0.1178183239075536 -0.1081948613950316 -0.1081948613950316 -0.1081948613950316 0.08217640400482354 0.08217640400482354 0.08217640400482354 0.1001803132275395 
0.1001803132275395 0.1001803132275395 -0.2871324985073707 -0.2871324985073707 -0.2871324985073707 -0.2966286554160867 -0.2966286554160867 -0.2966286554160867 -0.2739827297633477 
-0.2739827297633477 -0.2739827297633477 -0.2777147341541756 -0.2777147341541756 -0.2777147341541756 -0.8164875326863577 -0.8164875326863577 -0.8164875326863577 -0.8185313810086405 
-0.8185313810086405 -0.8185313810086405 -0.185488202995851 -0.185488202995851 -0.185488202995851 -0.1982879681334355 -0.1982879681334355 -0.1982879681334355 0.383260468633005 
0.383260468633005 0.383260468633005 0.3752903131860093 0.3752903131860093 0.3752903131860093 0.06951705131110213 0.06951705131110213 0.06951705131110213 0.0660124423747003 
0.0660124423747003 0.0660124423747003 -0.03376132796313694 -0.03376132796313694 -0.03376132796313694 -0.02518825185928239 -0.02518825185928239 -0.02518825185928239 0.2254901571674393 