Title = Triangle150
FileType = Solution
Variables = q
Zone T = Triangle150
ZoneType = FETriangle
Nodes = 212082
Elements = 70694
DataPacking = Block
StrandID = 5
SolutionTime = 0.4
0.1934292953317179 0.1934292953317179 0.1934292953317179 0.209721205546503 0.209721205546503 0.209721205546503 0.2096147679781675 0.2096147679781675 0.2096147679781675 0.1478993799351045 
0.1478993799351045 0.1478993799351045 0.1435461515622887 0.1435461515622887 0.1435461515622887 0.1543298494952265 0.1543298494952265 0.1543298494952265 0.00527247883179561 
0.00527247883179561 0.00527247883179561 0.001006313906924221 0.001006313906924221 0.001006313906924221 -0.00295658871688259 -0.00295658871688259 -0.00295658871688259 -0.09668717625528046 
-0.09668717625528046 -0.09668717625528046 -0.08999047967692853 -0.08999047967692853 -0.08999047967692853 -0.07486752490484157 -0.07486752490484157 -0.07486752490484157 -0.5221128630967378 
-0.5221128630967378 -0.5221128630967378 -0.5441264243811014 -0.5441264243811014 -0.5441264243811014 -0.5440820918224287 -0.5440820918224287 -0.5440820918224287 -0.1598970755621784 
-0.1598970755621784 -0.1598970755621784 -0.1703702368348808 -0.1703702368348808 -0.1703702368348808 -0.1813014785860476 -0.1813014785860476 -0.1813014785860476 -0.2319686361546257 
-0.2319686361546257 -0.2319686361546257 -0.2133411900904273 -0.2133411900904273 -0.2133411900904273 0.742685747441959 0.742685747441959 0.742685747441959 0.7335098723263194 
0.7335098723263194 0.7335098723263194 0.4568284887791397 0.4568284887791397 0.4568284887791397 0.4304244970200477 0.4304244970200477 0.4304244970200477 0.1978746173077047 
0.1978746173077047 0.1978746173077047 0.2042209235463016 0.2042209235463016 0.2042209235463016 -0.7363089143536865 -0.7363089143536865 -0.7363089143536865 -0.7323500102614566 
-0.7323500102614566 -0.7323500102614566 0.7697101429944944 0.7697101429944944 0.7697101429944944 0.7643346275575597 0.7643346275575597 0.7643346275575597 -0.1572363933878772 
-0.1572363933878772 -0.1572363933878772 -0.1607348534132785 -0.1607348534132785 -0.1607348534132785 -0.6498413279679341 -0.6498413279679341 -0.6498413279679341 -0.6632705352999605 
-0.6632705352999605 -0.6632705352999605 -0.6223616494427341 -0.6223616494427341 -0.6223616494427341 -0.6254924599810507 -0.6254924599810507 -0.6254924599810507 -0.0937278912459597 
-0.0937278912459597 -0.0937278912459597 -0.06590992361176121 -0.06590992361176121 -0.06590992361176121 0.7017625509922703 0.7017625509922703 0.7017625509922703 0.697403139658433 
0.697403139658433 0.697403139658433 0.3693937159761002 0.3693937159761002 0.3693937159761002 0.3660698382375238 0.3660698382375238 0.3660698382375238 0.2533864108091844 
0.2533864108091844 0.2533864108091844 0.2478423300212702 0.2478423300212702 0.2478423300212702 -0.2194363845362706 -0.2194363845362706 -0.2194363845362706 -0.2111377101852273 
-0.2111377101852273 -0.2111377101852273 -0.3146822351833689 -0.3146822351833689 -0.3146822351833689 -0.3045881588314057 -0.3045881588314057 -0.3045881588314057 0.2852626182739228 
0.2852626182739228 0.2852626182739228 0.3080392634654427 0.3080392634654427 0.3080392634654427 0.2380166697302164 0.2380166697302164 0.2380166697302164 0.2555052927612852 
0.2555052927612852 0.2555052927612852 0.7042288403031283 0.7042288403031283 0.7042288403031283 0.7180571001627373 0.7180571001627373 0.7180571001627373 0.3924306668361892 
0.3924306668361892 0.3924306668361892 0.404513159569117 0.404513159569117 0.404513159569117 0.1761250820780437 0.1761250820780437 0.1761250820780437 0.1597906711580521 
0.1597906711580521 0.1597906711580521 -0.4992068874083312 -0.4992068874083312 -0.4992068874083312 -0.4658586169430912 -0.4658586169430912 -0.4658586169430912 -0.7824855868544957 
-0.7824855868544957 -0.7824855868544957 -0.7809534778580167 -0.7809534778580167 -0.7809534778580167 -0.1425579617052075 -0.1425579617052075 -0.1425579617052075 -0.1479398085181085 
-0.1479398085181085 -0.1479398085181085 0.8112638742597699 0.8112638742597699 0.8112638742597699 0.8166430954501098 0.8166430954501098 0.8166430954501098 0.9596208756552237 
0.9596208756552237 0.9596208756552237 0.9567854086899433 0.9567854086899433 0.9567854086899433 0.03880593582722319 0.03880593582722319 0.03880593582722319 0.03519485777614675 
0.03519485777614675 0.03519485777614675 -0.3327167221721059 -0.3327167221721059 -0.3327167221721059 -0.3368866966328841 -0.3368866966328841 -0.3368866966328841 0.8702302033457125 
0.8702302033457125 0.8702302033457125 0.8753885230532982 0.8753885230532982 0.8753885230532982 0.6327269240682373 0.6327269240682373 0.6327269240682373 0.6413442007880727 
0.6413442007880727 0.6413442007880727 -0.2844340722225732 -0.2844340722225732 -0.2844340722225732 -0.2794076054908371 -0.2794076054908371 -0.2794076054908371 0.2923267528952606 
0.2923267528952606 0.2923267528952606 0.2987253813476891 0.2987253813476891 0.2987253813476891 -0.9141229496253916 -0.9141229496253916 -0.9141229496253916 -0.9138280719252784 
-0.9138280719252784 -0.9138280719252784 0.4261041694924543 0.4261041694924543 0.4261041694924543 0.4104295656333343 0.4104295656333343 0.4104295656333343 -0.4875739671475783 
-0.4875739671475783 -0.4875739671475783 -0.4809946473970295 -0.4809946473970295 -0.4809946473970295 -0.8196003665287327 -0.8196003665287327 -0.8196003665287327 -0.8258447373322523 
-0.8258447373322523 -0.8258447373322523 0.4591067991132012 0.4591067991132012 0.4591067991132012 0.4482952894249879 0.4482952894249879 0.4482952894249879 0.7434312545865986 
0.7434312545865986 0.7434312545865986 0.7337558891209018 0.7337558891209018 0.7337558891209018 0.2243907596922004 0.2243907596922004 0.2243907596922004 0.3936843759784564 
0.3936843759784564 0.3936843759784564 0.3839305737175794 0.3839305737175794 0.3839305737175794 -0.2445570114472701 -0.2445570114472701 -0.2445570114472701 -0.2533886327682977 
-0.2533886327682977 -0.2533886327682977 -0.6123764130098551 -0.6123764130098551 -0.6123764130098551 -0.6086145111364378 -0.6086145111364378 -0.6086145111364378 -0.1563243170104094 
-0.1563243170104094 -0.1563243170104094 -0.145736068689057 -0.145736068689057 -0.145736068689057 -0.1508555640295411 -0.1508555640295411 -0.1508555640295411 -0.1574634030067156 
-0.1574634030067156 -0.1574634030067156 -0.1927475667006096 -0.1927475667006096 -0.1927475667006096 -0.4789839925017363 -0.4789839925017363 -0.4789839925017363 0.08205460930226675 
0.08205460930226675 0.08205460930226675 0.04963382654375856 0.04963382654375856 0.04963382654375856 0.5371335855283963 0.5371335855283963 0.5371335855283963 -0.1888917490176979 
-0.1888917490176979 -0.1888917490176979 -0.705026363547236 -0.705026363547236 -0.705026363547236 -0.7160183335512393 -0.7160183335512393 -0.7160183335512393 0.4430632199199903 
0.4430632199199903 0.4430632199199903 -0.3610599267927005 -0.3610599267927005 -0.3610599267927005 0.4436553257539188 0.4436553257539188 0.4436553257539188 0.01840335372033334 
0.01840335372033334 0.01840335372033334 0.03766184319698246 0.03766184319698246 0.03766184319698246 0.1384901357150189 0.1384901357150189 0.1384901357150189 0.1342625189401919 
0.1342625189401919 0.1342625189401919 0.2328325416198538 0.2328325416198538 0.2328325416198538 0.2312063953954098 0.2312063953954098 0.2312063953954098 0.1210168127430359 
0.1210168127430359 0.1210168127430359 0.1304715937284122 0.1304715937284122 0.1304715937284122 -0.02055245113589154 -0.02055245113589154 -0.02055245113589154 -0.02337509710742796 
-0.02337509710742796 -0.02337509710742796 0.2630951249153859 0.2630951249153859 0.2630951249153859 0.2687254128519656 0.2687254128519656 0.2687254128519656 -0.3963837177659811 
-0.3963837177659811 -0.3963837177659811 -0.4250392361196094 -0.4250392361196094 -0.4250392361196094 -0.02449234888942987 -0.02449234888942987 -0.02449234888942987 -0.02258675337700878 
-0.02258675337700878 -0.02258675337700878 0.05014358436723552 0.05014358436723552 0.05014358436723552 0.06501968557976691 0.06501968557976691 0.06501968557976691 0.3936880206598 
0.3936880206598 0.3936880206598 0.4022230990088867 0.4022230990088867 0.4022230990088867 -0.3659115902124928 -0.3659115902124928 -0.3659115902124928 -0.386393145554836 
-0.386393145554836 -0.386393145554836 0.793599743129426 0.793599743129426 0.793599743129426 0.8026180981444276 0.8026180981444276 0.8026180981444276 -0.1436338506215667 
-0.1436338506215667 -0.1436338506215667 -0.1195468661629611 -0.1195468661629611 -0.1195468661629611 -0.6708483436637434 -0.6708483436637434 -0.6708483436637434 -0.6408759050698002 
-0.6408759050698002 -0.6408759050698002 -0.3598769076085599 -0.3598769076085599 -0.3598769076085599 -0.3402954773593463 -0.3402954773593463 -0.3402954773593463 -0.670565522450573 
-0.670565522450573 -0.670565522450573 -0.6904634836500247 -0.6904634836500247 -0.6904634836500247 -0.8313843988318466 -0.8313843988318466 -0.8313843988318466 -0.8463356247522197 
-0.8463356247522197 -0.8463356247522197 0.1455305778550769 0.1455305778550769 0.1455305778550769 0.1703979938280365 0.1703979938280365 0.1703979938280365 -0.1394745136021243 
-0.1394745136021243 -0.1394745136021243 -0.1321542627547882 -0.1321542627547882 -0.1321542627547882 0.5249780163120937 0.5249780163120937 0.5249780163120937 0.5208230615819799 
0.5208230615819799 0.5208230615819799 -0.06921974134643197 -0.06921974134643197 -0.06921974134643197 -0.05877016764784652 -0.05877016764784652 -0.05877016764784652 0.0735354697294044 
0.0735354697294044 0.0735354697294044 0.07311694764191332 0.07311694764191332 0.07311694764191332 -0.1029651113743989 -0.1029651113743989 -0.1029651113743989 -0.09556310970111638 
-0.09556310970111638 -0.09556310970111638 -0.09440842801671104 -0.09440842801671104 -0.09440842801671104 -0.09448548602765169 -0.09448548602765169 -0.09448548602765169 -0.1101202145456681 
-0.1101202145456681 -0.1101202145456681 -0.1416793148349058 -0.1416793148349058 -0.1416793148349058 -0.7148856262709311 -0.7148856262709311 -0.7148856262709311 -0.7000906888692825 
-0.7000906888692825 -0.7000906888692825 0.05361044815100165 0.05361044815100165 0.05361044815100165 0.05645170681378426 0.05645170681378426 0.05645170681378426 0.2789663591130644 
0.2789663591130644 0.2789663591130644 0.259112158512058 0.259112158512058 0.259112158512058 0.2333794918232052 0.2333794918232052 0.2333794918232052 0.2541478951136575 
0.2541478951136575 0.2541478951136575 -0.1603637014701187 -0.1603637014701187 -0.1603637014701187 -0.1702194050383468 -0.1702194050383468 -0.1702194050383468 -0.3665111864651405 
-0.3665111864651405 -0.3665111864651405 -0.3506228332153945 -0.3506228332153945 -0.3506228332153945 0.50523794255359 0.50523794255359 0.50523794255359 0.5141210204569926 
0.5141210204569926 0.5141210204569926 0.1408039664806615 0.1408039664806615 0.1408039664806615 0.1672293686263426 0.1672293686263426 0.1672293686263426 0.2009270036115552 
0.2009270036115552 0.2009270036115552 0.1912424484150634 0.1912424484150634 0.1912424484150634 0.7863915180596389 0.7863915180596389 0.7863915180596389 0.7658726109192481 
0.7658726109192481 0.7658726109192481 -0.002251906018835983 -0.002251906018835983 -0.002251906018835983 0.01163686640422134 0.01163686640422134 0.01163686640422134 -0.639777313979232 
-0.639777313979232 -0.639777313979232 -0.6219746442392303 -0.6219746442392303 -0.6219746442392303 -0.1119471973521056 -0.1119471973521056 -0.1119471973521056 -0.08754072582537969 
-0.08754072582537969 -0.08754072582537969 0.1630058562100028 0.1630058562100028 0.1630058562100028 0.1781424130776245 0.1781424130776245 0.1781424130776245 0.02543535504567537 
0.02543535504567537 0.02543535504567537 0.03153611890809754 0.03153611890809754 0.03153611890809754 -0.6354495758986789 -0.6354495758986789 -0.6354495758986789 -0.6599505228907759 
-0.6599505228907759 -0.6599505228907759 -0.1426334974512316 -0.1426334974512316 -0.1426334974512316 -0.1238097395474962 -0.1238097395474962 -0.1238097395474962 -0.1287154202236192 
-0.1287154202236192 -0.1287154202236192 -0.1599618603195322 -0.1599618603195322 -0.1599618603195322 -0.1044430874472129 -0.1044430874472129 -0.1044430874472129 -0.1131718042426295 
-0.1131718042426295 -0.1131718042426295 -0.1691119126931743 -0.1691119126931743 -0.1691119126931743 -0.194922831778387 -0.194922831778387 -0.194922831778387 0.07880683739498702 
0.07880683739498702 0.07880683739498702 0.0883683707711522 0.0883683707711522 0.0883683707711522 -0.6985221337562512 -0.6985221337562512 -0.6985221337562512 -0.7136531465917466 
-0.7136531465917466 -0.7136531465917466 -0.04839862050129979 -0.04839862050129979 -0.04839862050129979 -0.03384406447752451 -0.03384406447752451 -0.03384406447752451 -0.3168037198692848 
-0.3168037198692848 -0.3168037198692848 -0.3411712469416694 -0.3411712469416694 -0.3411712469416694 -0.775859973165651 -0.775859973165651 -0.775859973165651 -0.7884135144352593 
-0.7884135144352593 -0.7884135144352593 0.6514394086527751 0.6514394086527751 0.6514394086527751 0.6372662288018394 0.6372662288018394 0.6372662288018394 -0.6374240891384277 
-0.6374240891384277 -0.6374240891384277 -0.6290669391594517 -0.6290669391594517 -0.6290669391594517 0.0241137323226653 0.0241137323226653 0.0241137323226653 0.008160739390949953 
0.008160739390949953 0.008160739390949953 0.8690560743754318 0.8690560743754318 0.8690560743754318 0.8519163712110768 0.8519163712110768 0.8519163712110768 -0.764572207958931 
-0.764572207958931 -0.764572207958931 -0.7515901492234771 -0.7515901492234771 -0.7515901492234771 0.3237044782295283 0.3237044782295283 0.3237044782295283 0.3145943467613925 
0.3145943467613925 0.3145943467613925 -0.71035304328908 -0.71035304328908 -0.71035304328908 -0.688729917355025 -0.688729917355025 -0.688729917355025 -0.1676671118674233 
-0.1676671118674233 -0.1676671118674233 -0.1627605886394796 -0.1627605886394796 -0.1627605886394796 0.3785574972579344 0.3785574972579344 0.3785574972579344 0.3994741702250836 
0.3994741702250836 0.3994741702250836 -0.09165393463674228 -0.09165393463674228 -0.09165393463674228 -0.09895980097323616 -0.09895980097323616 -0.09895980097323616 -0.2595042830094458 
-0.2595042830094458 -0.2595042830094458 -0.2632966011562234 -0.2632966011562234 -0.2632966011562234 0.784581732176199 0.784581732176199 0.784581732176199 0.7889939978241143 
0.7889939978241143 0.7889939978241143 -0.009393133303933664 -0.009393133303933664 -0.009393133303933664 -0.001523193357789466 -0.001523193357789466 -0.001523193357789466 -0.006928070712671751 
-0.006928070712671751 -0.006928070712671751 -0.0100890888046113 -0.0100890888046113 -0.0100890888046113 -0.5266125780018593 -0.5266125780018593 -0.5266125780018593 -0.5233970077226167 
-0.5233970077226167 -0.5233970077226167 -0.4735576785810502 -0.4735576785810502 -0.4735576785810502 -0.4783375631114471 -0.4783375631114471 -0.4783375631114471 -0.6699318698408292 
-0.6699318698408292 -0.6699318698408292 -0.6900713790187601 -0.6900713790187601 -0.6900713790187601 -0.1648939127986065 -0.1648939127986065 -0.1648939127986065 -0.1732286934320265 
-0.1732286934320265 -0.1732286934320265 -0.1855575260807363 -0.1855575260807363 -0.1855575260807363 -0.1527167285883316 -0.1527167285883316 -0.1527167285883316 -0.1511102528494143 
-0.1511102528494143 -0.1511102528494143 -0.1584545424804456 -0.1584545424804456 -0.1584545424804456 -0.1438972817756232 -0.1438972817756232 -0.1438972817756232 0.03389017322831639 
0.03389017322831639 0.03389017322831639 0.03645075613646924 0.03645075613646924 0.03645075613646924 0.02510717730643627 0.02510717730643627 0.02510717730643627 0.02267256024857125 
0.02267256024857125 0.02267256024857125 0.4592512015291969 0.4592512015291969 0.4592512015291969 0.4653476602365941 0.4653476602365941 0.4653476602365941 0.451489876312408 
0.451489876312408 0.451489876312408 -0.03433274032848401 -0.03433274032848401 -0.03433274032848401 -0.03130906529636199 -0.03130906529636199 -0.03130906529636199 -0.04246080398076563 
-0.04246080398076563 -0.04246080398076563 -0.08935312276922869 -0.08935312276922869 -0.08935312276922869 -0.07647321306589616 -0.07647321306589616 -0.07647321306589616 -0.07720010458188681 
-0.07720010458188681 -0.07720010458188681 -0.781310837982266 -0.781310837982266 -0.781310837982266 -0.7781924448872527 -0.7781924448872527 -0.7781924448872527 -0.7744760380649391 
-0.7744760380649391 -0.7744760380649391 0.4371185455518075 0.4371185455518075 0.4371185455518075 0.4410246474452859 0.4410246474452859 0.4410246474452859 0.4238896739987313 
0.4238896739987313 0.4238896739987313 0.2402773241905577 0.2402773241905577 0.2402773241905577 0.2555638632737766 0.2555638632737766 0.2555638632737766 0.2559677060436263 
0.2559677060436263 0.2559677060436263 -0.6174874532345702 -0.6174874532345702 -0.6174874532345702 -0.6206636636595684 -0.6206636636595684 -0.6206636636595684 -0.6282255215091586 
-0.6282255215091586 -0.6282255215091586 -0.01463858051871361 -0.01463858051871361 -0.01463858051871361 -0.01560589167279886 -0.01560589167279886 -0.01560589167279886 -0.01449078004292653 
-0.01449078004292653 -0.01449078004292653 -0.003036940300954391 -0.003036940300954391 -0.003036940300954391 0.005911787174135961 0.005911787174135961 0.005911787174135961 0.002889865404274199 
0.002889865404274199 0.002889865404274199 -0.134174402125598 -0.134174402125598 -0.134174402125598 -0.1291419639699033 -0.1291419639699033 -0.1291419639699033 0.4478672531996442 
0.4478672531996442 0.4478672531996442 0.459971201215812 0.459971201215812 0.459971201215812 0.4730164764266526 0.4730164764266526 0.4730164764266526 -0.6811149634574449 
-0.6811149634574449 -0.6811149634574449 -0.6846119282041141 -0.6846119282041141 -0.6846119282041141 -0.6782168795860946 -0.6782168795860946 -0.6782168795860946 0.8934844478275409 
0.8934844478275409 0.8934844478275409 0.8917255966325397 0.8917255966325397 0.8917255966325397 0.8978643045536348 0.8978643045536348 0.8978643045536348 -0.0003962420608286214 
-0.0003962420608286214 -0.0003962420608286214 0.005230233753651061 0.005230233753651061 0.005230233753651061 -0.01888535235577739 -0.01888535235577739 -0.01888535235577739 -0.9161008128333196 
-0.9161008128333196 -0.9161008128333196 -0.9190936545135302 -0.9190936545135302 -0.9190936545135302 -0.9226924563822942 -0.9226924563822942 -0.9226924563822942 0.2984870852794081 
0.2984870852794081 0.2984870852794081 0.3046100823360267 0.3046100823360267 0.3046100823360267 0.3056362592180453 0.3056362592180453 0.3056362592180453 -0.7793563443397851 
-0.7793563443397851 -0.7793563443397851 -0.7679774592579346 -0.7679774592579346 -0.7679774592579346 -0.216005976754722 -0.216005976754722 -0.216005976754722 -0.2233103339126535 
-0.2233103339126535 -0.2233103339126535 -0.4410599128199866 -0.4410599128199866 -0.4410599128199866 -0.434254899290848 -0.434254899290848 -0.434254899290848 0.03468278190549749 
0.03468278190549749 0.03468278190549749 0.0406154375803077 0.0406154375803077 0.0406154375803077 0.5154880464922719 0.5154880464922719 0.5154880464922719 0.5129814026368975 
0.5129814026368975 0.5129814026368975 -0.7972100007889 -0.7972100007889 -0.7972100007889 -0.8014579071998874 -0.8014579071998874 -0.8014579071998874 -0.07611707251873728 
-0.07611707251873728 -0.07611707251873728 -0.07964465193595247 -0.07964465193595247 -0.07964465193595247 -0.7848896621934649 -0.7848896621934649 -0.7848896621934649 -0.7781812495168612 
-0.7781812495168612 -0.7781812495168612 0.1849006869168442 0.1849006869168442 0.1849006869168442 0.2094141560059353 0.2094141560059353 0.2094141560059353 0.6796894057781482 
0.6796894057781482 0.6796894057781482 0.6891223998669938 0.6891223998669938 0.6891223998669938 0.7359689563029213 0.7359689563029213 0.7359689563029213 0.7515074776352796 
0.7515074776352796 0.7515074776352796 0.1560201986736895 0.1560201986736895 0.1560201986736895 0.1347794739250817 0.1347794739250817 0.1347794739250817 0.1987333245144491 
0.1987333245144491 0.1987333245144491 0.18631444025203 0.18631444025203 0.18631444025203 -0.3055874868325233 -0.3055874868325233 -0.3055874868325233 -0.2840681382222343 
-0.2840681382222343 -0.2840681382222343 0.1364643514857957 0.1364643514857957 0.1364643514857957 0.1461583131209244 0.1461583131209244 0.1461583131209244 -0.08380326405902386 
-0.08380326405902386 -0.08380326405902386 -0.09569234219333167 -0.09569234219333167 -0.09569234219333167 -0.1447926882960169 -0.1447926882960169 -0.1447926882960169 -0.1305003662059125 
-0.1305003662059125 -0.1305003662059125 0.3400831778067963 0.3400831778067963 0.3400831778067963 0.3258582322495884 0.3258582322495884 0.3258582322495884 0.2652461936522059 
0.2652461936522059 0.2652461936522059 0.2795136972513855 0.2795136972513855 0.2795136972513855 -0.3459886699104705 -0.3459886699104705 -0.3459886699104705 -0.3377434171157867 
-0.3377434171157867 -0.3377434171157867 0.02497008480014462 0.02497008480014462 0.02497008480014462 0.04296893942249037 0.04296893942249037 0.04296893942249037 0.8439286542804523 
0.8439286542804523 0.8439286542804523 0.8427900568167545 0.8427900568167545 0.8427900568167545 0.02593748102087879 0.02593748102087879 0.02593748102087879 0.02961668379527705 
0.02961668379527705 0.02961668379527705 -0.2361827744437763 -0.2361827744437763 -0.2361827744437763 -0.263903081758353 -0.263903081758353 -0.263903081758353 -0.1896982295730656 
-0.1896982295730656 -0.1896982295730656 -0.1824443228804832 -0.1824443228804832 -0.1824443228804832 0.899303151229003 0.899303151229003 0.899303151229003 0.9048723768300853 
0.9048723768300853 0.9048723768300853 -0.6181556324321452 -0.6181556324321452 -0.6181556324321452 -0.6092278102979846 -0.6092278102979846 -0.6092278102979846 0.7177689447685454 
0.7177689447685454 0.7177689447685454 0.7169559486256749 0.7169559486256749 0.7169559486256749 0.8346073178192492 0.8346073178192492 0.8346073178192492 0.8424163289092902 
0.8424163289092902 0.8424163289092902 -0.8747469722913428 -0.8747469722913428 -0.8747469722913428 -0.8699792835501966 -0.8699792835501966 -0.8699792835501966 0.7918455157393872 
0.7918455157393872 0.7918455157393872 0.8069987166825606 0.8069987166825606 0.8069987166825606 -0.03486877726831916 -0.03486877726831916 -0.03486877726831916 -0.02854866533615246 
-0.02854866533615246 -0.02854866533615246 0.1219517276939156 0.1219517276939156 0.1219517276939156 0.1119267746801978 0.1119267746801978 0.1119267746801978 -0.1227576090367975 
-0.1227576090367975 -0.1227576090367975 -0.1036030565799286 -0.1036030565799286 -0.1036030565799286 -0.0177822115380841 -0.0177822115380841 -0.0177822115380841 -0.03326826009252416 
-0.03326826009252416 -0.03326826009252416 0.4035167849291157 0.4035167849291157 0.4035167849291157 0.4145476830190906 0.4145476830190906 0.4145476830190906 -0.8696630156570146 
-0.8696630156570146 -0.8696630156570146 -0.8769758319566734 -0.8769758319566734 -0.8769758319566734 0.6153852297399053 0.6153852297399053 0.6153852297399053 0.5957333192920846 
0.5957333192920846 0.5957333192920846 -0.7840010555013446 -0.7840010555013446 -0.7840010555013446 -0.7918698742109244 -0.7918698742109244 -0.7918698742109244 0.7268606693781092 
0.7268606693781092 0.7268606693781092 0.7334419135076101 0.7334419135076101 0.7334419135076101 -0.707976981636401 -0.707976981636401 -0.707976981636401 -0.7042712375942812 
-0.7042712375942812 -0.7042712375942812 -0.7568118217762551 -0.7568118217762551 -0.7568118217762551 -0.7630250281071522 -0.7630250281071522 -0.7630250281071522 -0.137983661509059 
-0.137983661509059 -0.137983661509059 -0.1424373944190431 -0.1424373944190431 -0.1424373944190431 -0.643126798369683 -0.643126798369683 -0.643126798369683 -0.6576668433189448 
-0.6576668433189448 -0.6576668433189448 -0.03574542955079198 -0.03574542955079198 -0.03574542955079198 -0.04622742535892056 -0.04622742535892056 -0.04622742535892056 -0.1487243429169633 
-0.1487243429169633 -0.1487243429169633 -0.1545072250293524 -0.1545072250293524 -0.1545072250293524 -0.8954734662386074 -0.8954734662386074 -0.8954734662386074 -0.8905079234912412 
-0.8905079234912412 -0.8905079234912412 -0.00736721858036851 -0.00736721858036851 -0.00736721858036851 -0.01961955541413309 -0.01961955541413309 -0.01961955541413309 0.8507759743642931 
0.8507759743642931 0.8507759743642931 0.8565259747216263 0.8565259747216263 0.8565259747216263 -0.04977427476664348 -0.04977427476664348 -0.04977427476664348 -0.04566816690864551 
-0.04566816690864551 -0.04566816690864551 -0.1135519447855762 -0.1135519447855762 -0.1135519447855762 -0.1096335670893586 -0.1096335670893586 -0.1096335670893586 -0.04734081105007037 
-0.04734081105007037 -0.04734081105007037 -0.06183033031314984 -0.06183033031314984 -0.06183033031314984 0.01910906845751994 0.01910906845751994 0.01910906845751994 0.03715186351549823 
0.03715186351549823 0.03715186351549823 0.9636008964951612 0.9636008964951612 0.9636008964951612 0.9644174403280058 0.9644174403280058 0.9644174403280058 0.1689404880149041 
0.1689404880149041 0.1689404880149041 0.1705761965205584 0.1705761965205584 0.1705761965205584 -0.3839348180893051 -0.3839348180893051 -0.3839348180893051 -0.3906689546829014 
-0.3906689546829014 -0.3906689546829014 0.8461260179109076 0.8461260179109076 0.8461260179109076 0.8522616679467362 0.8522616679467362 0.8522616679467362 -0.3669925769779574 
-0.3669925769779574 -0.3669925769779574 -0.3738845617776586 -0.3738845617776586 -0.3738845617776586 -0.6305278492343496 -0.6305278492343496 -0.6305278492343496 -0.6353943066014819 
-0.6353943066014819 -0.6353943066014819 -0.6907835317456077 -0.6907835317456077 -0.6907835317456077 -0.6865083807110831 -0.6865083807110831 -0.6865083807110831 -0.8227606355110046 
-0.8227606355110046 -0.8227606355110046 -0.8281905575877604 -0.8281905575877604 -0.8281905575877604 -0.1792709040204101 -0.1792709040204101 -0.1792709040204101 -0.1787119336998979 
-0.1787119336998979 -0.1787119336998979 0.459479804938813 0.459479804938813 0.459479804938813 0.4700558549984815 0.4700558549984815 0.4700558549984815 -0.07701440167275253 
-0.07701440167275253 -0.07701440167275253 -0.07229580690950009 -0.07229580690950009 -0.07229580690950009 0.7088906453220797 0.7088906453220797 0.7088906453220797 0.7018673864012599 
0.7018673864012599 0.7018673864012599 -0.7877050016418422 -0.7877050016418422 -0.7877050016418422 -0.7800355567125481 -0.7800355567125481 -0.7800355567125481 0.2956055232943969 
0.2956055232943969 0.2956055232943969 0.2891432409888142 0.2891432409888142 0.2891432409888142 0.3410090035061141 0.3410090035061141 0.3410090035061141 0.331737509592588 
0.331737509592588 0.331737509592588 -0.2405492662957939 -0.2405492662957939 -0.2405492662957939 -0.2266766595757378 -0.2266766595757378 -0.2266766595757378 -0.407193142681733 
-0.407193142681733 -0.407193142681733 -0.3783041707871214 -0.3783041707871214 -0.3783041707871214 -0.6442897375553622 -0.6442897375553622 -0.6442897375553622 -0.6388897925798356 
-0.6388897925798356 -0.6388897925798356 0.0478578500530161 0.0478578500530161 0.0478578500530161 0.0565953543277723 0.0565953543277723 0.0565953543277723 0.8093063582656097 
0.8093063582656097 0.8093063582656097 0.8023423056788938 0.8023423056788938 0.8023423056788938 -0.7953838327013911 -0.7953838327013911 -0.7953838327013911 -0.7830430611592414 
-0.7830430611592414 -0.7830430611592414 -0.1449305626722523 -0.1449305626722523 -0.1449305626722523 -0.1557975776883519 -0.1557975776883519 -0.1557975776883519 0.747468836364325 
0.747468836364325 0.747468836364325 0.7399236397735811 0.7399236397735811 0.7399236397735811 0.4833617362419558 0.4833617362419558 0.4833617362419558 0.4924085174712343 
0.4924085174712343 0.4924085174712343 -0.3723009476749666 -0.3723009476749666 -0.3723009476749666 -0.3606846854456226 -0.3606846854456226 -0.3606846854456226 -0.8609613158477237 
-0.8609613158477237 -0.8609613158477237 -0.8448247324298392 -0.8448247324298392 -0.8448247324298392 -0.4760571637015079 -0.4760571637015079 -0.4760571637015079 -0.4748085115144627 
-0.4748085115144627 -0.4748085115144627 0.8782749413878661 0.8782749413878661 0.8782749413878661 0.8732511913425318 0.8732511913425318 0.8732511913425318 0.6336049463304656 
0.6336049463304656 0.6336049463304656 0.6273428396729868 0.6273428396729868 0.6273428396729868 -0.1072616432728935 -0.1072616432728935 -0.1072616432728935 -0.09740092508169476 
-0.09740092508169476 -0.09740092508169476 0.6560852127780759 0.6560852127780759 0.6560852127780759 0.6280754070172887 0.6280754070172887 0.6280754070172887 -0.008398458994909916 
-0.008398458994909916 -0.008398458994909916 0.01311238667135062 0.01311238667135062 0.01311238667135062 0.2908254456194912 0.2908254456194912 0.2908254456194912 0.2885119480791201 
0.2885119480791201 0.2885119480791201 -0.6563544384428287 -0.6563544384428287 -0.6563544384428287 -0.6467787852946013 -0.6467787852946013 -0.6467787852946013 0.3036341606567184 
0.3036341606567184 0.3036341606567184 0.3168872179515588 0.3168872179515588 0.3168872179515588 -0.3647696065679444 -0.3647696065679444 -0.3647696065679444 -0.3538382089937573 
-0.3538382089937573 -0.3538382089937573 0.02607141376670234 0.02607141376670234 0.02607141376670234 0.02021291005402158 0.02021291005402158 0.02021291005402158 -0.7000021408239824 
-0.7000021408239824 -0.7000021408239824 -0.7083006892920931 -0.7083006892920931 -0.7083006892920931 0.5673639777440479 0.5673639777440479 0.5673639777440479 0.5805073582269853 
0.5805073582269853 0.5805073582269853 -0.7188821982637865 -0.7188821982637865 -0.7188821982637865 -0.708085291601503 -0.708085291601503 -0.708085291601503 -0.1488076727763818 
-0.1488076727763818 -0.1488076727763818 -0.1408170485283813 -0.1408170485283813 -0.1408170485283813 -0.004643394944014392 -0.004643394944014392 -0.004643394944014392 0.008241454795558191 
0.008241454795558191 0.008241454795558191 -0.6232340554515905 -0.6232340554515905 -0.6232340554515905 -0.6180384399905708 -0.6180384399905708 -0.6180384399905708 0.6364348664682866 
0.6364348664682866 0.6364348664682866 0.6461171416040596 0.6461171416040596 0.6461171416040596 0.2253448504725983 0.2253448504725983 0.2253448504725983 0.2182321740249556 