Title = Triangle150
FileType = Solution
Variables = q
Zone T = Triangle150
ZoneType = FETriangle
Nodes = 212082
Elements = 70694
DataPacking = Block
StrandID = 6
SolutionTime = 0.5
0.52788750092575 0.52788750092575 0.52788750092575 0.5450580519434137 0.5450580519434137 0.5450580519434137 0.5484570677474535 0.5484570677474535 0.5484570677474535 -0.1228513278409941 
-0.1228513278409941 -0.1228513278409941 -0.1287901813553947 -0.1287901813553947 -0.1287901813553947 -0.1182151336138991 -0.1182151336138991 -0.1182151336138991 0.40214490156434 
0.40214490156434 0.40214490156434 0.4094739810926691 0.4094739810926691 0.4094739810926691 0.4132830955384819 0.4132830955384819 0.4132830955384819 -0.209540261013207 
-0.209540261013207 -0.209540261013207 -0.2110198088028157 -0.2110198088028157 -0.2110198088028157 -0.1989787331804188 -0.1989787331804188 -0.1989787331804188 -0.3171831316073769 
-0.3171831316073769 -0.3171831316073769 -0.3312526923630611 -0.3312526923630611 -0.3312526923630611 -0.338992755479136 -0.338992755479136 -0.338992755479136 0.1789357261347216 
0.1789357261347216 0.1789357261347216 0.1691769322521928 0.1691769322521928 0.1691769322521928 0.1651162110292024 0.1651162110292024 0.1651162110292024 -0.007774017205660185 
-0.007774017205660185 -0.007774017205660185 0.0002713925352138725 0.0002713925352138725 0.0002713925352138725 0.2304227078007816 0.2304227078007816 0.2304227078007816 0.2188929545373 
0.2188929545373 0.2188929545373 0.458565999341456 0.458565999341456 0.458565999341456 0.4405706549444884 0.4405706549444884 0.4405706549444884 0.3785608276145194 
0.3785608276145194 0.3785608276145194 0.3791574635401844 0.3791574635401844 0.3791574635401844 -0.7318551199912231 -0.7318551199912231 -0.7318551199912231 -0.7402064784057594 
-0.7402064784057594 -0.7402064784057594 0.3127967881144134 0.3127967881144134 0.3127967881144134 0.3136991983550667 0.3136991983550667 0.3136991983550667 -0.1501858974071882 
-0.1501858974071882 -0.1501858974071882 -0.1460922751569799 -0.1460922751569799 -0.1460922751569799 -0.9451632123742103 -0.9451632123742103 -0.9451632123742103 -0.9476002216958928 
-0.9476002216958928 -0.9476002216958928 -0.1552355090516235 -0.1552355090516235 -0.1552355090516235 -0.1539531041542423 -0.1539531041542423 -0.1539531041542423 0.4796011530478776 
0.4796011530478776 0.4796011530478776 0.5039816277752456 0.5039816277752456 0.5039816277752456 0.67611062419779 0.67611062419779 0.67611062419779 0.6840280017811639 
0.6840280017811639 0.6840280017811639 -0.1121720290965485 -0.1121720290965485 -0.1121720290965485 -0.1224658737353042 -0.1224658737353042 -0.1224658737353042 0.6010232230427104 
0.6010232230427104 0.6010232230427104 0.5970126734463915 0.5970126734463915 0.5970126734463915 -0.4364510343481088 -0.4364510343481088 -0.4364510343481088 -0.4158671031595105 
-0.4158671031595105 -0.4158671031595105 -0.4790817527226279 -0.4790817527226279 -0.4790817527226279 -0.464530422791658 -0.464530422791658 -0.464530422791658 0.4049038779515672 
0.4049038779515672 0.4049038779515672 0.4181733113352749 0.4181733113352749 0.4181733113352749 0.7226269970469825 0.7226269970469825 0.7226269970469825 0.736211332077954 
0.736211332077954 0.736211332077954 0.3954070573654692 0.3954070573654692 0.3954070573654692 0.4147137967622808 0.4147137967622808 0.4147137967622808 0.822031296753849 
0.822031296753849 0.822031296753849 0.8296051357249998 0.8296051357249998 0.8296051357249998 0.6919100075921248 0.6919100075921248 0.6919100075921248 0.6785374382992828 
0.6785374382992828 0.6785374382992828 -0.1401737200292003 -0.1401737200292003 -0.1401737200292003 -0.1210100902302225 -0.1210100902302225 -0.1210100902302225 -0.7769392206354417 
-0.7769392206354417 -0.7769392206354417 -0.7635082616611957 -0.7635082616611957 -0.7635082616611957 -0.06595650411162118 -0.06595650411162118 -0.06595650411162118 -0.06066724201172198 
-0.06066724201172198 -0.06066724201172198 0.8697500988508652 0.8697500988508652 0.8697500988508652 0.8664011468142996 0.8664011468142996 0.8664011468142996 0.7536176854776989 
0.7536176854776989 0.7536176854776989 0.7448746143024698 0.7448746143024698 0.7448746143024698 0.03562216868372222 0.03562216868372222 0.03562216868372222 0.03896580458463217 
0.03896580458463217 0.03896580458463217 -0.2300976327567219 -0.2300976327567219 -0.2300976327567219 -0.2257415069571156 -0.2257415069571156 -0.2257415069571156 0.7804923502706089 
0.7804923502706089 0.7804923502706089 0.7752195042957009 0.7752195042957009 0.7752195042957009 0.9174478937051532 0.9174478937051532 0.9174478937051532 0.9187004427632197 
0.9187004427632197 0.9187004427632197 0.2991086642777701 0.2991086642777701 0.2991086642777701 0.3045799836863511 0.3045799836863511 0.3045799836863511 0.002553029022850928 
0.002553029022850928 0.002553029022850928 0.007728280615153767 0.007728280615153767 0.007728280615153767 -0.6780653372840173 -0.6780653372840173 -0.6780653372840173 -0.668744817152749 
-0.668744817152749 -0.668744817152749 0.1009233395220986 0.1009233395220986 0.1009233395220986 0.09126208431712782 0.09126208431712782 0.09126208431712782 -0.1406311354288951 
-0.1406311354288951 -0.1406311354288951 -0.1354870007753177 -0.1354870007753177 -0.1354870007753177 -0.4958828345646791 -0.4958828345646791 -0.4958828345646791 -0.5116015205119272 
-0.5116015205119272 -0.5116015205119272 0.005195248342250616 0.005195248342250616 0.005195248342250616 -0.0006819003027318064 -0.0006819003027318064 -0.0006819003027318064 0.2358986178763183 
0.2358986178763183 0.2358986178763183 0.2242542251198409 0.2242542251198409 0.2242542251198409 0.5645763601031655 0.5645763601031655 0.5645763601031655 -0.09295041755335205 
-0.09295041755335205 -0.09295041755335205 -0.1094132616723936 -0.1094132616723936 -0.1094132616723936 -0.01997344770711233 -0.01997344770711233 -0.01997344770711233 -0.02182349194578708 
-0.02182349194578708 -0.02182349194578708 -0.58061014548711 -0.58061014548711 -0.58061014548711 -0.5864818915456793 -0.5864818915456793 -0.5864818915456793 0.4222261572109776 
0.4222261572109776 0.4222261572109776 0.4319964864162178 0.4319964864162178 0.4319964864162178 -0.4909689770509405 -0.4909689770509405 -0.4909689770509405 -0.4980204464594336 
-0.4980204464594336 -0.4980204464594336 -0.006971009304557704 -0.006971009304557704 -0.006971009304557704 -0.6273973501708177 -0.6273973501708177 -0.6273973501708177 -0.4625829554630186 
-0.4625829554630186 -0.4625829554630186 -0.3152132664274443 -0.3152132664274443 -0.3152132664274443 0.1803573264197613 0.1803573264197613 0.1803573264197613 -0.3704258781031647 
-0.3704258781031647 -0.3704258781031647 -0.2480880098611626 -0.2480880098611626 -0.2480880098611626 -0.187714715700539 -0.187714715700539 -0.187714715700539 0.5546289717762727 
0.5546289717762727 0.5546289717762727 -0.2563203758978605 -0.2563203758978605 -0.2563203758978605 -0.03287070658839131 -0.03287070658839131 -0.03287070658839131 0.1321657551263795 
0.1321657551263795 0.1321657551263795 0.1466548294025889 0.1466548294025889 0.1466548294025889 -0.2442451010963836 -0.2442451010963836 -0.2442451010963836 -0.2357546235742026 
-0.2357546235742026 -0.2357546235742026 0.6706701465476144 0.6706701465476144 0.6706701465476144 0.6646365057809752 0.6646365057809752 0.6646365057809752 0.5028765695111516 
0.5028765695111516 0.5028765695111516 0.5240361318808813 0.5240361318808813 0.5240361318808813 -0.2618942933675026 -0.2618942933675026 -0.2618942933675026 -0.2813892568522365 
-0.2813892568522365 -0.2813892568522365 0.4567331072233467 0.4567331072233467 0.4567331072233467 0.4710546760574166 0.4710546760574166 0.4710546760574166 -0.6257496357349316 
-0.6257496357349316 -0.6257496357349316 -0.6476519776254823 -0.6476519776254823 -0.6476519776254823 -0.3159566871262238 -0.3159566871262238 -0.3159566871262238 -0.3120102484908647 
-0.3120102484908647 -0.3120102484908647 0.07408824230462779 0.07408824230462779 0.07408824230462779 0.09536196798490484 0.09536196798490484 0.09536196798490484 0.8416685777167938 
0.8416685777167938 0.8416685777167938 0.8443483855672096 0.8443483855672096 0.8443483855672096 -0.0470884847832532 -0.0470884847832532 -0.0470884847832532 -0.05690392962382571 
-0.05690392962382571 -0.05690392962382571 0.9246613286593539 0.9246613286593539 0.9246613286593539 0.933235189914398 0.933235189914398 0.933235189914398 0.1657489843164092 
0.1657489843164092 0.1657489843164092 0.1817839220346487 0.1817839220346487 0.1817839220346487 -0.8891786829171991 -0.8891786829171991 -0.8891786829171991 -0.8716339584444769 
-0.8716339584444769 -0.8716339584444769 -0.3120009062816878 -0.3120009062816878 -0.3120009062816878 -0.3161241811924476 -0.3161241811924476 -0.3161241811924476 -0.1735815611202897 
-0.1735815611202897 -0.1735815611202897 -0.190090867798656 -0.190090867798656 -0.190090867798656 -0.8990967496290907 -0.8990967496290907 -0.8990967496290907 -0.8905832949118713 
-0.8905832949118713 -0.8905832949118713 -0.4139107741270431 -0.4139107741270431 -0.4139107741270431 -0.3953675674269164 -0.3953675674269164 -0.3953675674269164 -0.6165183184948306 
-0.6165183184948306 -0.6165183184948306 -0.6172128562464441 -0.6172128562464441 -0.6172128562464441 0.3490834930069238 0.3490834930069238 0.3490834930069238 0.3503353183524741 
0.3503353183524741 0.3503353183524741 0.2486238071391895 0.2486238071391895 0.2486238071391895 0.2397394247129818 0.2397394247129818 0.2397394247129818 0.2315670502695218 
0.2315670502695218 0.2315670502695218 0.2489350914899389 0.2489350914899389 0.2489350914899389 -0.439729522584171 -0.439729522584171 -0.439729522584171 -0.4298406958592399 
-0.4298406958592399 -0.4298406958592399 0.1116427775044391 0.1116427775044391 0.1116427775044391 0.1014634140248465 0.1014634140248465 0.1014634140248465 0.1121872399013162 
0.1121872399013162 0.1121872399013162 0.08882040758775445 0.08882040758775445 0.08882040758775445 -0.6277179954146951 -0.6277179954146951 -0.6277179954146951 -0.6198281357419749 
-0.6198281357419749 -0.6198281357419749 0.3546866882575202 0.3546866882575202 0.3546866882575202 0.3584923259097967 0.3584923259097967 0.3584923259097967 0.7168414064117372 
0.7168414064117372 0.7168414064117372 0.6955395521345761 0.6955395521345761 0.6955395521345761 0.5882180377701894 0.5882180377701894 0.5882180377701894 0.6165460368534051 
0.6165460368534051 0.6165460368534051 -0.3996722848271575 -0.3996722848271575 -0.3996722848271575 -0.4201027367919157 -0.4201027367919157 -0.4201027367919157 -0.06389713094716679 
-0.06389713094716679 -0.06389713094716679 -0.03738447038746798 -0.03738447038746798 -0.03738447038746798 0.7379230783078845 0.7379230783078845 0.7379230783078845 0.755810613561219 
0.755810613561219 0.755810613561219 0.2117475842921477 0.2117475842921477 0.2117475842921477 0.2316201430814773 0.2316201430814773 0.2316201430814773 -0.3636708403818276 
-0.3636708403818276 -0.3636708403818276 -0.3763456734362033 -0.3763456734362033 -0.3763456734362033 0.9282195740630113 0.9282195740630113 0.9282195740630113 0.9277370572062364 
0.9277370572062364 0.9277370572062364 -0.2687490943509017 -0.2687490943509017 -0.2687490943509017 -0.2425385499896934 -0.2425385499896934 -0.2425385499896934 -0.09452365890333027 
-0.09452365890333027 -0.09452365890333027 -0.07542437590281109 -0.07542437590281109 -0.07542437590281109 -0.02163914173265896 -0.02163914173265896 -0.02163914173265896 -0.02459790335021963 
-0.02459790335021963 -0.02459790335021963 0.2625204146943042 0.2625204146943042 0.2625204146943042 0.2869854092810893 0.2869854092810893 0.2869854092810893 -0.05179603264198457 
-0.05179603264198457 -0.05179603264198457 -0.04594299098624957 -0.04594299098624957 -0.04594299098624957 -0.9446214760899752 -0.9446214760899752 -0.9446214760899752 -0.9499837181439325 
-0.9499837181439325 -0.9499837181439325 -0.1667459400249212 -0.1667459400249212 -0.1667459400249212 -0.1417915985834291 -0.1417915985834291 -0.1417915985834291 -0.2552706497718182 
-0.2552706497718182 -0.2552706497718182 -0.2698453753045661 -0.2698453753045661 -0.2698453753045661 -0.4403492197363388 -0.4403492197363388 -0.4403492197363388 -0.4577587355482021 
-0.4577587355482021 -0.4577587355482021 -0.3452798248004199 -0.3452798248004199 -0.3452798248004199 -0.3609120911470212 -0.3609120911470212 -0.3609120911470212 0.04215867973994623 
0.04215867973994623 0.04215867973994623 0.03619301768073564 0.03619301768073564 0.03619301768073564 -0.3317610111258449 -0.3317610111258449 -0.3317610111258449 -0.3534431293898746 
-0.3534431293898746 -0.3534431293898746 -0.05408407622556206 -0.05408407622556206 -0.05408407622556206 -0.06396339966051412 -0.06396339966051412 -0.06396339966051412 -0.2793920504493238 
-0.2793920504493238 -0.2793920504493238 -0.2884345652313848 -0.2884345652313848 -0.2884345652313848 -0.5338074164516067 -0.5338074164516067 -0.5338074164516067 -0.5321613464024458 
-0.5321613464024458 -0.5321613464024458 0.5416691876937944 0.5416691876937944 0.5416691876937944 0.5167464303680279 0.5167464303680279 0.5167464303680279 -0.1046491220867242 
-0.1046491220867242 -0.1046491220867242 -0.09070011991587973 -0.09070011991587973 -0.09070011991587973 -0.2154493476953981 -0.2154493476953981 -0.2154493476953981 -0.2110079729219178 
-0.2110079729219178 -0.2110079729219178 0.6013365994230786 0.6013365994230786 0.6013365994230786 0.59552936186109 0.59552936186109 0.59552936186109 -0.3826583926683378 
-0.3826583926683378 -0.3826583926683378 -0.3624988605306633 -0.3624988605306633 -0.3624988605306633 0.03857304083843245 0.03857304083843245 0.03857304083843245 0.03185590095040864 
0.03185590095040864 0.03185590095040864 -0.9337813459814598 -0.9337813459814598 -0.9337813459814598 -0.9291921886918498 -0.9291921886918498 -0.9291921886918498 0.02752707821024637 
0.02752707821024637 0.02752707821024637 0.04574329789314281 0.04574329789314281 0.04574329789314281 -0.004475920079665838 -0.004475920079665838 -0.004475920079665838 0.02525169499287289 
0.02525169499287289 0.02525169499287289 -0.4132483217456938 -0.4132483217456938 -0.4132483217456938 -0.4229201346410718 -0.4229201346410718 -0.4229201346410718 -0.02293658886681055 
-0.02293658886681055 -0.02293658886681055 -0.02336811691829362 -0.02336811691829362 -0.02336811691829362 0.9288311722910245 0.9288311722910245 0.9288311722910245 0.943804372006636 
0.943804372006636 0.943804372006636 -0.2406281687201324 -0.2406281687201324 -0.2406281687201324 -0.2157760329756128 -0.2157760329756128 -0.2157760329756128 -0.07232140240174462 
-0.07232140240174462 -0.07232140240174462 -0.08097787435710471 -0.08097787435710471 -0.08097787435710471 -0.286561800884563 -0.286561800884563 -0.286561800884563 -0.2597618369328289 
-0.2597618369328289 -0.2597618369328289 -0.1216066717783075 -0.1216066717783075 -0.1216066717783075 -0.1213351971173966 -0.1213351971173966 -0.1213351971173966 -0.2897898163224364 
-0.2897898163224364 -0.2897898163224364 -0.316239272023863 -0.316239272023863 -0.316239272023863 -0.3180973273399398 -0.3180973273399398 -0.3180973273399398 -0.321180297262198 
-0.321180297262198 -0.321180297262198 -0.3386323220873393 -0.3386323220873393 -0.3386323220873393 -0.3278831240915457 -0.3278831240915457 -0.3278831240915457 -0.01492948941445638 
-0.01492948941445638 -0.01492948941445638 -0.01410647638701554 -0.01410647638701554 -0.01410647638701554 -0.01695975886222424 -0.01695975886222424 -0.01695975886222424 -0.3235127149722993 
-0.3235127149722993 -0.3235127149722993 -0.2997441133039688 -0.2997441133039688 -0.2997441133039688 -0.3032387714004861 -0.3032387714004861 -0.3032387714004861 -0.2928719632192424 
-0.2928719632192424 -0.2928719632192424 0.8679241208191888 0.8679241208191888 0.8679241208191888 0.8729383754491102 0.8729383754491102 0.8729383754491102 0.866754539511134 
0.866754539511134 0.866754539511134 0.2020958751895188 0.2020958751895188 0.2020958751895188 0.2110098005974403 0.2110098005974403 0.2110098005974403 0.1946020207238991 
0.1946020207238991 0.1946020207238991 0.09572048412170001 0.09572048412170001 0.09572048412170001 0.1122552579436834 0.1122552579436834 0.1122552579436834 0.1053714191729347 
0.1053714191729347 0.1053714191729347 -0.4226375649041437 -0.4226375649041437 -0.4226375649041437 -0.4122272115564785 -0.4122272115564785 -0.4122272115564785 -0.4007737547783885 
-0.4007737547783885 -0.4007737547783885 0.4274041911120048 0.4274041911120048 0.4274041911120048 0.4211489475390638 0.4211489475390638 0.4211489475390638 0.3975984802142369 
0.3975984802142369 0.3975984802142369 0.3843975283951196 0.3843975283951196 0.3843975283951196 0.3962995436969938 0.3962995436969938 0.3962995436969938 0.4029790911211915 
0.4029790911211915 0.4029790911211915 -0.9144942301977304 -0.9144942301977304 -0.9144942301977304 -0.9066680437938393 -0.9066680437938393 -0.9066680437938393 -0.9083938553921485 
-0.9083938553921485 -0.9083938553921485 -0.2364460489846771 -0.2364460489846771 -0.2364460489846771 -0.245983450979577 -0.245983450979577 -0.245983450979577 -0.249709209469032 
-0.249709209469032 -0.249709209469032 -0.3874984207987405 -0.3874984207987405 -0.3874984207987405 -0.3784336392973792 -0.3784336392973792 -0.3784336392973792 -0.3918782623401407 
-0.3918782623401407 -0.3918782623401407 -0.01880067859684734 -0.01880067859684734 -0.01880067859684734 -0.01997103157041918 -0.01997103157041918 -0.01997103157041918 0.8722221836955315 
0.8722221836955315 0.8722221836955315 0.877463374248393 0.877463374248393 0.877463374248393 0.8839930671056987 0.8839930671056987 0.8839930671056987 -0.6444501622573607 
-0.6444501622573607 -0.6444501622573607 -0.6392224237400095 -0.6392224237400095 -0.6392224237400095 -0.6248976025379513 -0.6248976025379513 -0.6248976025379513 0.4811176141574122 
0.4811176141574122 0.4811176141574122 0.4754079310345658 0.4754079310345658 0.4754079310345658 0.4861697866647915 0.4861697866647915 0.4861697866647915 0.2083502134402693 
0.2083502134402693 0.2083502134402693 0.2088649012634757 0.2088649012634757 0.2088649012634757 0.1900426170270685 0.1900426170270685 0.1900426170270685 -0.5535453213496302 
-0.5535453213496302 -0.5535453213496302 -0.563202576065291 -0.563202576065291 -0.563202576065291 -0.5755812046034815 -0.5755812046034815 -0.5755812046034815 0.6855151403762694 
0.6855151403762694 0.6855151403762694 0.6936054927921838 0.6936054927921838 0.6936054927921838 0.697163186071901 0.697163186071901 0.697163186071901 -0.6416076878023481 
-0.6416076878023481 -0.6416076878023481 -0.6274537709316154 -0.6274537709316154 -0.6274537709316154 0.2104546736532961 0.2104546736532961 0.2104546736532961 0.1960621758163505 
0.1960621758163505 0.1960621758163505 -0.1032960858712774 -0.1032960858712774 -0.1032960858712774 -0.09869834150223729 -0.09869834150223729 -0.09869834150223729 0.4174913803532017 
0.4174913803532017 0.4174913803532017 0.427456095996613 0.427456095996613 0.427456095996613 0.8979695508281993 0.8979695508281993 0.8979695508281993 0.8985007715782315 
0.8985007715782315 0.8985007715782315 -0.3990266155821408 -0.3990266155821408 -0.3990266155821408 -0.4076852982619974 -0.4076852982619974 -0.4076852982619974 0.1431890254811732 
0.1431890254811732 0.1431890254811732 0.128360308697633 0.128360308697633 0.128360308697633 -0.8446860458798169 -0.8446860458798169 -0.8446860458798169 -0.848410308783223 
-0.848410308783223 -0.848410308783223 -0.05803518678728579 -0.05803518678728579 -0.05803518678728579 -0.0404996448134347 -0.0404996448134347 -0.0404996448134347 0.9399738100490542 
0.9399738100490542 0.9399738100490542 0.9408598617739194 0.9408598617739194 0.9408598617739194 0.7909828766141322 0.7909828766141322 0.7909828766141322 0.7938370455160524 
0.7938370455160524 0.7938370455160524 0.3098439897569077 0.3098439897569077 0.3098439897569077 0.2895456006300645 0.2895456006300645 0.2895456006300645 -0.3733647444141913 
-0.3733647444141913 -0.3733647444141913 -0.3836307512461306 -0.3836307512461306 -0.3836307512461306 -0.2701452584374587 -0.2701452584374587 -0.2701452584374587 -0.254031947513822 
-0.254031947513822 -0.254031947513822 0.4734579804339752 0.4734579804339752 0.4734579804339752 0.4871142881716467 0.4871142881716467 0.4871142881716467 0.1189599497280973 
0.1189599497280973 0.1189599497280973 0.1081069049105474 0.1081069049105474 0.1081069049105474 -0.3845735182545081 -0.3845735182545081 -0.3845735182545081 -0.3784600087187425 
-0.3784600087187425 -0.3784600087187425 -0.09819521681331314 -0.09819521681331314 -0.09819521681331314 -0.1029674227150546 -0.1029674227150546 -0.1029674227150546 0.5871306025571994 
0.5871306025571994 0.5871306025571994 0.6034351606741308 0.6034351606741308 0.6034351606741308 -0.5500880067932931 -0.5500880067932931 -0.5500880067932931 -0.5486361573922315 
-0.5486361573922315 -0.5486361573922315 -0.2396543662754612 -0.2396543662754612 -0.2396543662754612 -0.2101846208606763 -0.2101846208606763 -0.2101846208606763 0.5554749825438591 
0.5554749825438591 0.5554749825438591 0.5622927094092164 0.5622927094092164 0.5622927094092164 -0.2192175634605457 -0.2192175634605457 -0.2192175634605457 -0.2343474545237703 
-0.2343474545237703 -0.2343474545237703 -0.4285121348748766 -0.4285121348748766 -0.4285121348748766 -0.4504211934035017 -0.4504211934035017 -0.4504211934035017 -0.2762455036552737 
-0.2762455036552737 -0.2762455036552737 -0.283292529194625 -0.283292529194625 -0.283292529194625 0.8545042444363911 0.8545042444363911 0.8545042444363911 0.8465224918688903 
0.8465224918688903 0.8465224918688903 -0.08670436372511904 -0.08670436372511904 -0.08670436372511904 -0.07229327389683843 -0.07229327389683843 -0.07229327389683843 0.4607876024223386 
0.4607876024223386 0.4607876024223386 0.4521662342655379 0.4521662342655379 0.4521662342655379 0.9388220286711912 0.9388220286711912 0.9388220286711912 0.9358029467646201 
0.9358029467646201 0.9358029467646201 -0.8441587575798347 -0.8441587575798347 -0.8441587575798347 -0.8495669839214155 -0.8495669839214155 -0.8495669839214155 0.755486268620453 
0.755486268620453 0.755486268620453 0.7727176427290973 0.7727176427290973 0.7727176427290973 -0.2990788414154786 -0.2990788414154786 -0.2990788414154786 -0.2951850650235754 
-0.2951850650235754 -0.2951850650235754 -0.4380293809861416 -0.4380293809861416 -0.4380293809861416 -0.4444906332413197 -0.4444906332413197 -0.4444906332413197 -0.01797316448587783 
-0.01797316448587783 -0.01797316448587783 -0.01782975390203666 -0.01782975390203666 -0.01782975390203666 0.5443161472566687 0.5443161472566687 0.5443161472566687 0.5314816499409549 
0.5314816499409549 0.5314816499409549 0.07078405880139364 0.07078405880139364 0.07078405880139364 0.07682263337213877 0.07682263337213877 0.07682263337213877 -0.4246447912704424 
-0.4246447912704424 -0.4246447912704424 -0.4386465785305001 -0.4386465785305001 -0.4386465785305001 0.3599707390093169 0.3599707390093169 0.3599707390093169 0.332110660224306 
0.332110660224306 0.332110660224306 -0.6627115427823559 -0.6627115427823559 -0.6627115427823559 -0.6790481085435621 -0.6790481085435621 -0.6790481085435621 0.9571237091096254 
0.9571237091096254 0.9571237091096254 0.9546261079033755 0.9546261079033755 0.9546261079033755 -0.4725271323030303 -0.4725271323030303 -0.4725271323030303 -0.4813744561050416 
-0.4813744561050416 -0.4813744561050416 -0.508107132740993 -0.508107132740993 -0.508107132740993 -0.5079985361078527 -0.5079985361078527 -0.5079985361078527 -0.1850323549859377 
-0.1850323549859377 -0.1850323549859377 -0.1825536081664585 -0.1825536081664585 -0.1825536081664585 -0.1567328456648863 -0.1567328456648863 -0.1567328456648863 -0.1687006277747769 
-0.1687006277747769 -0.1687006277747769 -0.3167660409995865 -0.3167660409995865 -0.3167660409995865 -0.3356427829866975 -0.3356427829866975 -0.3356427829866975 -0.2784520405232047 
-0.2784520405232047 -0.2784520405232047 -0.2775550346511614 -0.2775550346511614 -0.2775550346511614 -0.4798954806353388 -0.4798954806353388 -0.4798954806353388 -0.4700458360715516 
-0.4700458360715516 -0.4700458360715516 -0.2507363139679248 -0.2507363139679248 -0.2507363139679248 -0.2759967292915834 -0.2759967292915834 -0.2759967292915834 0.5414156407432673 
0.5414156407432673 0.5414156407432673 0.5601440346545068 0.5601440346545068 0.5601440346545068 -0.01996013099631929 -0.01996013099631929 -0.01996013099631929 -0.02306527322918331 
-0.02306527322918331 -0.02306527322918331 0.1263644809680301 0.1263644809680301 0.1263644809680301 0.1428469379806035 0.1428469379806035 0.1428469379806035 0.4462172575855805 
0.4462172575855805 0.4462172575855805 0.4306972676957018 0.4306972676957018 0.4306972676957018 -0.1848570235103598 -0.1848570235103598 -0.1848570235103598 -0.1836377593282094 
-0.1836377593282094 -0.1836377593282094 0.7058568209605012 0.7058568209605012 0.7058568209605012 0.7144486511979953 0.7144486511979953 0.7144486511979953 0.6960346554927497 
0.6960346554927497 0.6960346554927497 0.6970814913674468 0.6970814913674468 0.6970814913674468 -0.5127989690802339 -0.5127989690802339 -0.5127989690802339 -0.5114800802532323 
-0.5114800802532323 -0.5114800802532323 0.9387452061846016 0.9387452061846016 0.9387452061846016 0.9357560375962818 0.9357560375962818 0.9357560375962818 -0.4914011084817003 
-0.4914011084817003 -0.4914011084817003 -0.4899242835876968 -0.4899242835876968 -0.4899242835876968 -0.710396247243263 -0.710396247243263 -0.710396247243263 -0.7079969858847628 
-0.7079969858847628 -0.7079969858847628 -0.9558584407307215 -0.9558584407307215 -0.9558584407307215 -0.9548216408964278 -0.9548216408964278 -0.9548216408964278 -0.8693678575205201 
-0.8693678575205201 -0.8693678575205201 -0.8658769305664716 -0.8658769305664716 -0.8658769305664716 -0.002034864857827248 -0.002034864857827248 -0.002034864857827248 0.003812031134956483 
0.003812031134956483 0.003812031134956483 0.1186265507304544 0.1186265507304544 0.1186265507304544 0.1262611312766385 0.1262611312766385 0.1262611312766385 -0.3920259007063283 
-0.3920259007063283 -0.3920259007063283 -0.3841648458232063 -0.3841648458232063 -0.3841648458232063 0.8069596500556028 0.8069596500556028 0.8069596500556028 0.8093769484963471 
0.8093769484963471 0.8093769484963471 -0.4175297242822629 -0.4175297242822629 -0.4175297242822629 -0.4159141848548127 -0.4159141848548127 -0.4159141848548127 0.7269434498930912 
0.7269434498930912 0.7269434498930912 0.7253081042949111 0.7253081042949111 0.7253081042949111 0.3374818882411047 0.3374818882411047 0.3374818882411047 0.3341986719152503 
0.3341986719152503 0.3341986719152503 -0.7459731374336336 -0.7459731374336336 -0.7459731374336336 -0.7357140386117298 -0.7357140386117298 -0.7357140386117298 0.1734397222552909 
0.1734397222552909 0.1734397222552909 0.2045310738561758 0.2045310738561758 0.2045310738561758 -0.3027154388103268 -0.3027154388103268 -0.3027154388103268 -0.2951537642557633 
-0.2951537642557633 -0.2951537642557633 0.3038472993276532 0.3038472993276532 0.3038472993276532 0.30507848911043 0.30507848911043 0.30507848911043 0.9420351033270236 
0.9420351033270236 0.9420351033270236 0.94613969869474 0.94613969869474 0.94613969869474 -0.5191858389727766 -0.5191858389727766 -0.5191858389727766 -0.5014149328879824 
-0.5014149328879824 -0.5014149328879824 -0.6352313049396908 -0.6352313049396908 -0.6352313049396908 -0.6427338420830281 -0.6427338420830281 -0.6427338420830281 0.9246200065039011 
0.9246200065039011 0.9246200065039011 0.9252251336524037 0.9252251336524037 0.9252251336524037 0.8167777935830436 0.8167777935830436 0.8167777935830436 0.8291380441040755 
0.8291380441040755 0.8291380441040755 -0.5737597591601085 -0.5737597591601085 -0.5737597591601085 -0.5701396231809509 -0.5701396231809509 -0.5701396231809509 -0.6505969479816286 
-0.6505969479816286 -0.6505969479816286 -0.6352324455394055 -0.6352324455394055 -0.6352324455394055 -0.3431256368648888 -0.3431256368648888 -0.3431256368648888 -0.3492592643377481 
-0.3492592643377481 -0.3492592643377481 0.8651811024285206 0.8651811024285206 0.8651811024285206 0.8551514869392902 0.8551514869392902 0.8551514869392902 0.3451922324714897 
0.3451922324714897 0.3451922324714897 0.330189034119907 0.330189034119907 0.330189034119907 0.2184898293534867 0.2184898293534867 0.2184898293534867 0.2215091593720746 
0.2215091593720746 0.2215091593720746 0.639748173362511 0.639748173362511 0.639748173362511 0.619340964989386 0.619340964989386 0.619340964989386 -0.2720128510055194 
-0.2720128510055194 -0.2720128510055194 -0.2500324072188536 -0.2500324072188536 -0.2500324072188536 0.3959267331158277 0.3959267331158277 0.3959267331158277 0.3854009514336335 
0.3854009514336335 0.3854009514336335 -0.1153795912943317 -0.1153795912943317 -0.1153795912943317 -0.1043412761685034 -0.1043412761685034 -0.1043412761685034 0.1051849846774787 
0.1051849846774787 0.1051849846774787 0.1211598769417057 0.1211598769417057 0.1211598769417057 0.2081841400741664 0.2081841400741664 0.2081841400741664 0.2209485105926867 
0.2209485105926867 0.2209485105926867 -0.2096370196439675 -0.2096370196439675 -0.2096370196439675 -0.2108994204103396 -0.2108994204103396 -0.2108994204103396 -0.951351950524579 
-0.951351950524579 -0.951351950524579 -0.9508329769738704 -0.9508329769738704 -0.9508329769738704 0.8992508817182456 0.8992508817182456 0.8992508817182456 0.9108060426394007 
0.9108060426394007 0.9108060426394007 -0.900007167402249 -0.900007167402249 -0.900007167402249 -0.9008855169920509 -0.9008855169920509 -0.9008855169920509 -0.1667789371851163 
-0.1667789371851163 -0.1667789371851163 -0.16800361506096 -0.16800361506096 -0.16800361506096 -0.4523486963614508 -0.4523486963614508 -0.4523486963614508 -0.4459125370403534 
-0.4459125370403534 -0.4459125370403534 -0.9411361715307927 -0.9411361715307927 -0.9411361715307927 -0.9400922632480049 -0.9400922632480049 -0.9400922632480049 0.8574346972792886 
0.8574346972792886 0.8574346972792886 0.8573868195550978 0.8573868195550978 0.8573868195550978 0.4073021687631394 0.4073021687631394 0.4073021687631394 0.4064381192624261 
0.4064381192624261 0.4064381192624261 -0.06785594916311112 -0.06785594916311112 -0.06785594916311112 -0.08243084515620794 -0.08243084515620794 -0.08243084515620794 0.2217400794308871 