Title = Triangle150
FileType = Solution
Variables = q
Zone T = Triangle150
ZoneType = FETriangle
Nodes = 212082
Elements = 70694
DataPacking = Block
StrandID = 18
SolutionTime = 1.7
-0.3539379439137976 -0.3539379439137976 -0.3539379439137976 -0.3470327640071353 -0.3470327640071353 -0.3470327640071353 -0.3647832812711634 -0.3647832812711634 -0.3647832812711634 0.08562639759045362 
0.08562639759045362 0.08562639759045362 0.07861328068725258 0.07861328068725258 0.07861328068725258 0.06650496100364166 0.06650496100364166 0.06650496100364166 -0.8185451961929152 
-0.8185451961929152 -0.8185451961929152 -0.8242539385024215 -0.8242539385024215 -0.8242539385024215 -0.8282798447018536 -0.8282798447018536 -0.8282798447018536 -0.2116975175320385 
-0.2116975175320385 -0.2116975175320385 -0.2088592917495236 -0.2088592917495236 -0.2088592917495236 -0.2201745125043439 -0.2201745125043439 -0.2201745125043439 -0.646728926283511 
-0.646728926283511 -0.646728926283511 -0.6385603327872196 -0.6385603327872196 -0.6385603327872196 -0.6319179351524593 -0.6319179351524593 -0.6319179351524593 0.0932519718186198 
0.0932519718186198 0.0932519718186198 0.1006163437623364 0.1006163437623364 0.1006163437623364 0.09529819572499187 0.09529819572499187 0.09529819572499187 0.447609965482541 
0.447609965482541 0.447609965482541 0.4596170920880366 0.4596170920880366 0.4596170920880366 0.2717682008125354 0.2717682008125354 0.2717682008125354 0.268417742781725 
0.268417742781725 0.268417742781725 0.4416361707346817 0.4416361707346817 0.4416361707346817 0.4470322553780103 0.4470322553780103 0.4470322553780103 0.2605806134853667 
0.2605806134853667 0.2605806134853667 0.27139990353099 0.27139990353099 0.27139990353099 -0.2235252495272772 -0.2235252495272772 -0.2235252495272772 -0.2073334851317873 
-0.2073334851317873 -0.2073334851317873 0.07650252192617846 0.07650252192617846 0.07650252192617846 0.05596380968194702 0.05596380968194702 0.05596380968194702 -0.6368636475366387 
-0.6368636475366387 -0.6368636475366387 -0.6446237582214389 -0.6446237582214389 -0.6446237582214389 0.3449862999159362 0.3449862999159362 0.3449862999159362 0.3322503577294346 
0.3322503577294346 0.3322503577294346 -0.01255927634761161 -0.01255927634761161 -0.01255927634761161 -0.02598580929770888 -0.02598580929770888 -0.02598580929770888 -0.6499123560702726 
-0.6499123560702726 -0.6499123560702726 -0.6486288433553257 -0.6486288433553257 -0.6486288433553257 0.2895425200051414 0.2895425200051414 0.2895425200051414 0.2744943496764714 
0.2744943496764714 0.2744943496764714 0.8152708461806448 0.8152708461806448 0.8152708461806448 0.8134382698116209 0.8134382698116209 0.8134382698116209 -0.3793196001526534 
-0.3793196001526534 -0.3793196001526534 -0.3883420046020903 -0.3883420046020903 -0.3883420046020903 0.01655110640396128 0.01655110640396128 0.01655110640396128 -0.005130854348480368 
-0.005130854348480368 -0.005130854348480368 -0.2240408015992615 -0.2240408015992615 -0.2240408015992615 -0.2417202088440502 -0.2417202088440502 -0.2417202088440502 0.3458781732197492 
0.3458781732197492 0.3458781732197492 0.3502454033797458 0.3502454033797458 0.3502454033797458 -0.5202754739952015 -0.5202754739952015 -0.5202754739952015 -0.5220826072636453 
-0.5220826072636453 -0.5220826072636453 0.5807457955503778 0.5807457955503778 0.5807457955503778 0.5652455715140066 0.5652455715140066 0.5652455715140066 -0.555702520230875 
-0.555702520230875 -0.555702520230875 -0.5449540448177093 -0.5449540448177093 -0.5449540448177093 -0.5838986742324056 -0.5838986742324056 -0.5838986742324056 -0.5802573430190658 
-0.5802573430190658 -0.5802573430190658 0.2282409049486588 0.2282409049486588 0.2282409049486588 0.2527420906986446 0.2527420906986446 0.2527420906986446 -0.1789377285395719 
-0.1789377285395719 -0.1789377285395719 -0.1994743375314897 -0.1994743375314897 -0.1994743375314897 -0.7182354311973472 -0.7182354311973472 -0.7182354311973472 -0.7262888974437144 
-0.7262888974437144 -0.7262888974437144 0.03445121388534468 0.03445121388534468 0.03445121388534468 0.04409535809434072 0.04409535809434072 0.04409535809434072 0.1627829742438353 
0.1627829742438353 0.1627829742438353 0.1779525177910128 0.1779525177910128 0.1779525177910128 -0.5271372172923354 -0.5271372172923354 -0.5271372172923354 -0.5293802704916446 
-0.5293802704916446 -0.5293802704916446 -0.6597281779619116 -0.6597281779619116 -0.6597281779619116 -0.6665842408686515 -0.6665842408686515 -0.6665842408686515 0.2002103773331071 
0.2002103773331071 0.2002103773331071 0.2072426567253918 0.2072426567253918 0.2072426567253918 -0.3316352404921166 -0.3316352404921166 -0.3316352404921166 -0.3242095872320183 
-0.3242095872320183 -0.3242095872320183 -0.652331738779482 -0.652331738779482 -0.652331738779482 -0.6438968909472451 -0.6438968909472451 -0.6438968909472451 -0.2050020227764589 
-0.2050020227764589 -0.2050020227764589 -0.1969687511353895 -0.1969687511353895 -0.1969687511353895 -0.2925658524131318 -0.2925658524131318 -0.2925658524131318 -0.2991804966986737 
-0.2991804966986737 -0.2991804966986737 -0.2723997618147488 -0.2723997618147488 -0.2723997618147488 -0.2776609534571147 -0.2776609534571147 -0.2776609534571147 0.2331369498325498 
0.2331369498325498 0.2331369498325498 0.238627612673352 0.238627612673352 0.238627612673352 -0.4694489602141226 -0.4694489602141226 -0.4694489602141226 -0.4583285473152641 
-0.4583285473152641 -0.4583285473152641 -0.008885166848845782 -0.008885166848845782 -0.008885166848845782 -0.01846901707908127 -0.01846901707908127 -0.01846901707908127 0.2394998094986508 
0.2394998094986508 0.2394998094986508 0.2343104641913005 0.2343104641913005 0.2343104641913005 -0.3618561552949755 -0.3618561552949755 -0.3618561552949755 0.8024989872218559 
0.8024989872218559 0.8024989872218559 0.8032410152065378 0.8032410152065378 0.8032410152065378 0.4445319564107904 0.4445319564107904 0.4445319564107904 0.4367246332249851 
0.4367246332249851 0.4367246332249851 -0.3761813612259503 -0.3761813612259503 -0.3761813612259503 -0.3647813391653262 -0.3647813391653262 -0.3647813391653262 -0.6655313439546895 
-0.6655313439546895 -0.6655313439546895 -0.6614294570733755 -0.6614294570733755 -0.6614294570733755 0.4467494485709588 0.4467494485709588 0.4467494485709588 0.436576831593518 
0.436576831593518 0.436576831593518 0.4953660757290157 0.4953660757290157 0.4953660757290157 -0.1466087894766018 -0.1466087894766018 -0.1466087894766018 0.4796550679121044 
0.4796550679121044 0.4796550679121044 0.8409852110583589 0.8409852110583589 0.8409852110583589 -0.1953294216119427 -0.1953294216119427 -0.1953294216119427 -0.2642855242763311 
-0.2642855242763311 -0.2642855242763311 -0.02046863867430349 -0.02046863867430349 -0.02046863867430349 -0.3754843920375835 -0.3754843920375835 -0.3754843920375835 0.2522239254417153 
0.2522239254417153 0.2522239254417153 -0.6462731678664235 -0.6462731678664235 -0.6462731678664235 0.7826835089247878 0.7826835089247878 0.7826835089247878 0.2957665222738051 
0.2957665222738051 0.2957665222738051 0.2805068027201323 0.2805068027201323 0.2805068027201323 0.01703034186378396 0.01703034186378396 0.01703034186378396 -0.006386262351338703 
-0.006386262351338703 -0.006386262351338703 -0.6531757747712983 -0.6531757747712983 -0.6531757747712983 -0.647812638967754 -0.647812638967754 -0.647812638967754 -0.6751768882002707 
-0.6751768882002707 -0.6751768882002707 -0.6832993028243053 -0.6832993028243053 -0.6832993028243053 0.6680518721181264 0.6680518721181264 0.6680518721181264 0.689312454048746 
0.689312454048746 0.689312454048746 0.1820436879281253 0.1820436879281253 0.1820436879281253 0.1540064972641481 0.1540064972641481 0.1540064972641481 0.1503013212077995 
0.1503013212077995 0.1503013212077995 0.1588153586173149 0.1588153586173149 0.1588153586173149 0.3318404381570245 0.3318404381570245 0.3318404381570245 0.3520405580648097 
0.3520405580648097 0.3520405580648097 0.3566248898627989 0.3566248898627989 0.3566248898627989 0.3318315898708943 0.3318315898708943 0.3318315898708943 -0.5694688211425678 
-0.5694688211425678 -0.5694688211425678 -0.5634877740297209 -0.5634877740297209 -0.5634877740297209 0.3091686541974316 0.3091686541974316 0.3091686541974316 0.2945160608355512 
0.2945160608355512 0.2945160608355512 -0.0938042894896742 -0.0938042894896742 -0.0938042894896742 -0.107059853438451 -0.107059853438451 -0.107059853438451 0.1362677029583027 
0.1362677029583027 0.1362677029583027 0.1307593878454032 0.1307593878454032 0.1307593878454032 0.2627095012231703 0.2627095012231703 0.2627095012231703 0.2690136215779078 
0.2690136215779078 0.2690136215779078 -0.5782857519968772 -0.5782857519968772 -0.5782857519968772 -0.5582334089650476 -0.5582334089650476 -0.5582334089650476 -0.1225672222260832 
-0.1225672222260832 -0.1225672222260832 -0.1465852378787149 -0.1465852378787149 -0.1465852378787149 0.1425212517526691 0.1425212517526691 0.1425212517526691 0.1252144670728331 
0.1252144670728331 0.1252144670728331 0.499734791489703 0.499734791489703 0.499734791489703 0.5146181934363956 0.5146181934363956 0.5146181934363956 0.753369728551034 
0.753369728551034 0.753369728551034 0.7589374578628765 0.7589374578628765 0.7589374578628765 0.006564639428947461 0.006564639428947461 0.006564639428947461 0.00975702519915192 
0.00975702519915192 0.00975702519915192 -0.837645584735809 -0.837645584735809 -0.837645584735809 -0.8271407814683754 -0.8271407814683754 -0.8271407814683754 0.1801994395374109 
0.1801994395374109 0.1801994395374109 0.157770994876361 0.157770994876361 0.157770994876361 0.5740527762686793 0.5740527762686793 0.5740527762686793 0.5894428098330011 
0.5894428098330011 0.5894428098330011 -0.3403033628243337 -0.3403033628243337 -0.3403033628243337 -0.3509115001377385 -0.3509115001377385 -0.3509115001377385 0.3631559250456955 
0.3631559250456955 0.3631559250456955 0.362511407020579 0.362511407020579 0.362511407020579 -0.3654278662562143 -0.3654278662562143 -0.3654278662562143 -0.3698248785257155 
-0.3698248785257155 -0.3698248785257155 -0.358610383157022 -0.358610383157022 -0.358610383157022 -0.3344046683853448 -0.3344046683853448 -0.3344046683853448 -0.6221616465380231 
-0.6221616465380231 -0.6221616465380231 -0.6326109511708861 -0.6326109511708861 -0.6326109511708861 -0.4210192096450771 -0.4210192096450771 -0.4210192096450771 -0.4371406038170199 
-0.4371406038170199 -0.4371406038170199 0.002061769162634546 0.002061769162634546 0.002061769162634546 0.02465013593797923 0.02465013593797923 0.02465013593797923 -0.7981107410364732 
-0.7981107410364732 -0.7981107410364732 -0.8094577263975387 -0.8094577263975387 -0.8094577263975387 -0.0753043009069511 -0.0753043009069511 -0.0753043009069511 -0.1047122032591094 
-0.1047122032591094 -0.1047122032591094 0.5322921805107375 0.5322921805107375 0.5322921805107375 0.52795379014629 0.52795379014629 0.52795379014629 0.4919353602733734 
0.4919353602733734 0.4919353602733734 0.5135940820883317 0.5135940820883317 0.5135940820883317 -0.1986768911748511 -0.1986768911748511 -0.1986768911748511 -0.2168252807198326 
-0.2168252807198326 -0.2168252807198326 0.4259840581557379 0.4259840581557379 0.4259840581557379 0.4269870663567714 0.4269870663567714 0.4269870663567714 -0.3467464335227265 
-0.3467464335227265 -0.3467464335227265 -0.3347073363031504 -0.3347073363031504 -0.3347073363031504 0.5773628875417172 0.5773628875417172 0.5773628875417172 0.6073482673246795 
0.6073482673246795 0.6073482673246795 0.1649038936282043 0.1649038936282043 0.1649038936282043 0.1423537853833607 0.1423537853833607 0.1423537853833607 0.7286897539257846 
0.7286897539257846 0.7286897539257846 0.7304183999609213 0.7304183999609213 0.7304183999609213 0.3582521978371083 0.3582521978371083 0.3582521978371083 0.3332327727838187 
0.3332327727838187 0.3332327727838187 -0.2511675932180523 -0.2511675932180523 -0.2511675932180523 -0.2758071597892524 -0.2758071597892524 -0.2758071597892524 -0.4361627974057617 
-0.4361627974057617 -0.4361627974057617 -0.4496620497319255 -0.4496620497319255 -0.4496620497319255 0.5635702783843912 0.5635702783843912 0.5635702783843912 0.5798661654692716 
0.5798661654692716 0.5798661654692716 -0.07344260732065593 -0.07344260732065593 -0.07344260732065593 -0.06464600935419916 -0.06464600935419916 -0.06464600935419916 -0.5984984431124807 
-0.5984984431124807 -0.5984984431124807 -0.5909084900227822 -0.5909084900227822 -0.5909084900227822 0.08713597309787514 0.08713597309787514 0.08713597309787514 0.077890683283197 
0.077890683283197 0.077890683283197 0.6515371474393571 0.6515371474393571 0.6515371474393571 0.6715717185947583 0.6715717185947583 0.6715717185947583 -0.5905054995716692 
-0.5905054995716692 -0.5905054995716692 -0.5958943006677786 -0.5958943006677786 -0.5958943006677786 0.04043381453125503 0.04043381453125503 0.04043381453125503 0.03817883735743338 
0.03817883735743338 0.03817883735743338 0.4491555598234099 0.4491555598234099 0.4491555598234099 0.4740290841337722 0.4740290841337722 0.4740290841337722 -0.2591360514952472 
-0.2591360514952472 -0.2591360514952472 -0.2854146695466165 -0.2854146695466165 -0.2854146695466165 -0.1525473374258944 -0.1525473374258944 -0.1525473374258944 -0.1699685996740619 
-0.1699685996740619 -0.1699685996740619 -0.005346675436958406 -0.005346675436958406 -0.005346675436958406 -0.01647887700635459 -0.01647887700635459 -0.01647887700635459 0.03855897847997763 
0.03855897847997763 0.03855897847997763 0.04432695624744266 0.04432695624744266 0.04432695624744266 -0.08695661031342208 -0.08695661031342208 -0.08695661031342208 -0.07442934030738169 
-0.07442934030738169 -0.07442934030738169 0.2090083173050784 0.2090083173050784 0.2090083173050784 0.228339999634965 0.228339999634965 0.228339999634965 -0.2518901654384313 
-0.2518901654384313 -0.2518901654384313 -0.2432885704282552 -0.2432885704282552 -0.2432885704282552 0.82015498373115 0.82015498373115 0.82015498373115 0.8093213951207543 
0.8093213951207543 0.8093213951207543 0.5061340085445507 0.5061340085445507 0.5061340085445507 0.4858365477811651 0.4858365477811651 0.4858365477811651 0.4333093343758029 
0.4333093343758029 0.4333093343758029 0.4297976666938775 0.4297976666938775 0.4297976666938775 -0.1116786965241046 -0.1116786965241046 -0.1116786965241046 -0.1451691325704897 
-0.1451691325704897 -0.1451691325704897 0.5637031407277322 0.5637031407277322 0.5637031407277322 0.5567697008005987 0.5567697008005987 0.5567697008005987 0.5409985356677177 
0.5409985356677177 0.5409985356677177 0.5549771773479226 0.5549771773479226 0.5549771773479226 -0.6720386920730662 -0.6720386920730662 -0.6720386920730662 -0.6909698708420997 
-0.6909698708420997 -0.6909698708420997 0.2480738859537644 0.2480738859537644 0.2480738859537644 0.2426089746906437 0.2426089746906437 0.2426089746906437 -0.6351454940071771 
-0.6351454940071771 -0.6351454940071771 -0.6159588038342647 -0.6159588038342647 -0.6159588038342647 -0.1043735209993506 -0.1043735209993506 -0.1043735209993506 -0.1032841602236159 
-0.1032841602236159 -0.1032841602236159 -0.08714037848283043 -0.08714037848283043 -0.08714037848283043 -0.08832506487873339 -0.08832506487873339 -0.08832506487873339 0.5153813302497285 
0.5153813302497285 0.5153813302497285 0.5090822443313595 0.5090822443313595 0.5090822443313595 0.5316917519818116 0.5316917519818116 0.5316917519818116 0.04505402676699476 
0.04505402676699476 0.04505402676699476 0.00349620784825043 0.00349620784825043 0.00349620784825043 -0.001956243711279404 -0.001956243711279404 -0.001956243711279404 -0.02284468256056148 
-0.02284468256056148 -0.02284468256056148 -0.5065829851674435 -0.5065829851674435 -0.5065829851674435 -0.50404947822934 -0.50404947822934 -0.50404947822934 -0.5178680267883685 
-0.5178680267883685 -0.5178680267883685 -0.4146158334732495 -0.4146158334732495 -0.4146158334732495 -0.4090278070593107 -0.4090278070593107 -0.4090278070593107 -0.3946128391916873 
-0.3946128391916873 -0.3946128391916873 -0.3682311294313241 -0.3682311294313241 -0.3682311294313241 -0.3869954834622544 -0.3869954834622544 -0.3869954834622544 -0.3901517453502217 
-0.3901517453502217 -0.3901517453502217 -0.5231747598010104 -0.5231747598010104 -0.5231747598010104 -0.5277350844916261 -0.5277350844916261 -0.5277350844916261 -0.5326756542836252 
-0.5326756542836252 -0.5326756542836252 0.03169673555506321 0.03169673555506321 0.03169673555506321 0.0340660417811566 0.0340660417811566 0.0340660417811566 0.04766681385034222 
0.04766681385034222 0.04766681385034222 0.3223166249934903 0.3223166249934903 0.3223166249934903 0.3197148019120165 0.3197148019120165 0.3197148019120165 0.3049376754910527 
0.3049376754910527 0.3049376754910527 0.3074198210507507 0.3074198210507507 0.3074198210507507 0.282295044429978 0.282295044429978 0.282295044429978 0.2733510623946764 
0.2733510623946764 0.2733510623946764 0.681792635789765 0.681792635789765 0.681792635789765 0.68909473845797 0.68909473845797 0.68909473845797 0.7009190233370327 
0.7009190233370327 0.7009190233370327 0.8152371791993562 0.8152371791993562 0.8152371791993562 0.8213259057746041 0.8213259057746041 0.8213259057746041 0.8226689401986012 
0.8226689401986012 0.8226689401986012 0.5430909504042788 0.5430909504042788 0.5430909504042788 0.5477044313208745 0.5477044313208745 0.5477044313208745 -0.5258690962627277 
-0.5258690962627277 -0.5258690962627277 -0.5163582378106834 -0.5163582378106834 -0.5163582378106834 -0.505248782077641 -0.505248782077641 -0.505248782077641 -0.3253248647062815 
-0.3253248647062815 -0.3253248647062815 -0.3349926482714516 -0.3349926482714516 -0.3349926482714516 -0.3521211639516777 -0.3521211639516777 -0.3521211639516777 0.171760456845359 
0.171760456845359 0.171760456845359 0.1809913181003379 0.1809913181003379 0.1809913181003379 0.1877348504064697 0.1877348504064697 0.1877348504064697 0.3211564223101427 
0.3211564223101427 0.3211564223101427 0.3324316298024681 0.3324316298024681 0.3324316298024681 0.3345943991740375 0.3345943991740375 0.3345943991740375 -0.309331864850435 
-0.309331864850435 -0.309331864850435 -0.3059504449236183 -0.3059504449236183 -0.3059504449236183 -0.3013583531664566 -0.3013583531664566 -0.3013583531664566 -0.496922722826068 
-0.496922722826068 -0.496922722826068 -0.4993501448404755 -0.4993501448404755 -0.4993501448404755 -0.5058104359256665 -0.5058104359256665 -0.5058104359256665 0.05130894375951064 
0.05130894375951064 0.05130894375951064 0.05029911285394665 0.05029911285394665 0.05029911285394665 -0.8668040428682532 -0.8668040428682532 -0.8668040428682532 -0.8661874064401591 
-0.8661874064401591 -0.8661874064401591 0.2736550481702179 0.2736550481702179 0.2736550481702179 0.2793618077418107 0.2793618077418107 0.2793618077418107 -0.7887243355098765 
-0.7887243355098765 -0.7887243355098765 -0.7853654184031208 -0.7853654184031208 -0.7853654184031208 -0.4592805864383281 -0.4592805864383281 -0.4592805864383281 -0.4644925279369117 
-0.4644925279369117 -0.4644925279369117 -0.001224751426235309 -0.001224751426235309 -0.001224751426235309 -0.0007832669832688124 -0.0007832669832688124 -0.0007832669832688124 -0.3598150811495574 
-0.3598150811495574 -0.3598150811495574 -0.3684281375919281 -0.3684281375919281 -0.3684281375919281 -0.06214711282916958 -0.06214711282916958 -0.06214711282916958 -0.05003809576877999 
-0.05003809576877999 -0.05003809576877999 -0.3576827346905325 -0.3576827346905325 -0.3576827346905325 -0.3552659480007828 -0.3552659480007828 -0.3552659480007828 -0.3088628190204084 
-0.3088628190204084 -0.3088628190204084 -0.2999938200221001 -0.2999938200221001 -0.2999938200221001 -0.1345362589066474 -0.1345362589066474 -0.1345362589066474 -0.1288236122242905 
-0.1288236122242905 -0.1288236122242905 0.1126314043493803 0.1126314043493803 0.1126314043493803 0.1294731163955441 0.1294731163955441 0.1294731163955441 0.5353062331034354 
0.5353062331034354 0.5353062331034354 0.530425269464059 0.530425269464059 0.530425269464059 -0.1371001705414408 -0.1371001705414408 -0.1371001705414408 -0.1525562669125157 
-0.1525562669125157 -0.1525562669125157 -0.4569830279027888 -0.4569830279027888 -0.4569830279027888 -0.4621074448190128 -0.4621074448190128 -0.4621074448190128 0.4005249095987125 
0.4005249095987125 0.4005249095987125 0.4064311335960775 0.4064311335960775 0.4064311335960775 -0.1138073533166958 -0.1138073533166958 -0.1138073533166958 -0.0912555348822727 
-0.0912555348822727 -0.0912555348822727 0.837244646940794 0.837244646940794 0.837244646940794 0.8425779709475847 0.8425779709475847 0.8425779709475847 -0.2695194517499616 
-0.2695194517499616 -0.2695194517499616 -0.276721952948086 -0.276721952948086 -0.276721952948086 -0.1011466222156448 -0.1011466222156448 -0.1011466222156448 -0.08764846328394776 
-0.08764846328394776 -0.08764846328394776 0.3514227729496678 0.3514227729496678 0.3514227729496678 0.348170106585229 0.348170106585229 0.348170106585229 -0.0137840444388783 
-0.0137840444388783 -0.0137840444388783 -0.01588639653805884 -0.01588639653805884 -0.01588639653805884 -0.146655239219676 -0.146655239219676 -0.146655239219676 -0.1187903408888384 
-0.1187903408888384 -0.1187903408888384 -0.203864009981492 -0.203864009981492 -0.203864009981492 -0.2012979182351973 -0.2012979182351973 -0.2012979182351973 -0.4751647952909522 
-0.4751647952909522 -0.4751647952909522 -0.4527920078003563 -0.4527920078003563 -0.4527920078003563 -0.05910440800397077 -0.05910440800397077 -0.05910440800397077 -0.05044001985179931 
-0.05044001985179931 -0.05044001985179931 -0.2418087080032885 -0.2418087080032885 -0.2418087080032885 -0.2654832702874945 -0.2654832702874945 -0.2654832702874945 0.5366611147245121 
0.5366611147245121 0.5366611147245121 0.5428510745686987 0.5428510745686987 0.5428510745686987 -0.1521208117574406 -0.1521208117574406 -0.1521208117574406 -0.1425240301389333 
-0.1425240301389333 -0.1425240301389333 0.07929683339884547 0.07929683339884547 0.07929683339884547 0.08562167636819053 0.08562167636819053 0.08562167636819053 -0.08868390576486525 
-0.08868390576486525 -0.08868390576486525 -0.09003571000910596 -0.09003571000910596 -0.09003571000910596 -0.07462045583104356 -0.07462045583104356 -0.07462045583104356 -0.06494544909509278 
-0.06494544909509278 -0.06494544909509278 0.5185691464036966 0.5185691464036966 0.5185691464036966 0.5087282223068214 0.5087282223068214 0.5087282223068214 0.5667474488834705 
0.5667474488834705 0.5667474488834705 0.5898436872895834 0.5898436872895834 0.5898436872895834 -0.6480603068832761 -0.6480603068832761 -0.6480603068832761 -0.6551687342343293 
-0.6551687342343293 -0.6551687342343293 -0.2918735339359971 -0.2918735339359971 -0.2918735339359971 -0.2837570854837731 -0.2837570854837731 -0.2837570854837731 -0.2590891778142631 
-0.2590891778142631 -0.2590891778142631 -0.2494835064095904 -0.2494835064095904 -0.2494835064095904 -0.05116725636081446 -0.05116725636081446 -0.05116725636081446 -0.05575445414006704 
-0.05575445414006704 -0.05575445414006704 -0.3405920802506222 -0.3405920802506222 -0.3405920802506222 -0.3220207537387532 -0.3220207537387532 -0.3220207537387532 -0.2703162563361118 
-0.2703162563361118 -0.2703162563361118 -0.2637797216201102 -0.2637797216201102 -0.2637797216201102 -0.5285122350762879 -0.5285122350762879 -0.5285122350762879 -0.5213618192787413 
-0.5213618192787413 -0.5213618192787413 0.04369177553782091 0.04369177553782091 0.04369177553782091 0.04326502724082826 0.04326502724082826 0.04326502724082826 -0.2367927553679036 
-0.2367927553679036 -0.2367927553679036 -0.2382555813626912 -0.2382555813626912 -0.2382555813626912 -0.07607273878726131 -0.07607273878726131 -0.07607273878726131 -0.08985461468476333 
-0.08985461468476333 -0.08985461468476333 0.5105037843740137 0.5105037843740137 0.5105037843740137 0.5251811486077885 0.5251811486077885 0.5251811486077885 -0.4159664044156623 
-0.4159664044156623 -0.4159664044156623 -0.4261950102570981 -0.4261950102570981 -0.4261950102570981 -0.1921062859032001 -0.1921062859032001 -0.1921062859032001 -0.1928532278814925 
-0.1928532278814925 -0.1928532278814925 0.5232037479824727 0.5232037479824727 0.5232037479824727 0.542534953746055 0.542534953746055 0.542534953746055 -0.004472879697981405 
-0.004472879697981405 -0.004472879697981405 -0.004757528743706032 -0.004757528743706032 -0.004757528743706032 0.6452618969700843 0.6452618969700843 0.6452618969700843 0.6506028836322043 
0.6506028836322043 0.6506028836322043 0.2418112479772685 0.2418112479772685 0.2418112479772685 0.215106335930966 0.215106335930966 0.215106335930966 -0.8394241048711547 
-0.8394241048711547 -0.8394241048711547 -0.8432321009964584 -0.8432321009964584 -0.8432321009964584 -0.2059212987448117 -0.2059212987448117 -0.2059212987448117 -0.1970775576416506 
-0.1970775576416506 -0.1970775576416506 0.1743528251353796 0.1743528251353796 0.1743528251353796 0.1684347666296724 0.1684347666296724 0.1684347666296724 -0.656931565544735 
-0.656931565544735 -0.656931565544735 -0.6499893137748411 -0.6499893137748411 -0.6499893137748411 -0.2588273694861571 -0.2588273694861571 -0.2588273694861571 -0.2714178112006723 
-0.2714178112006723 -0.2714178112006723 -0.1348666284821778 -0.1348666284821778 -0.1348666284821778 -0.1274267220374815 -0.1274267220374815 -0.1274267220374815 -0.2800809184845022 
-0.2800809184845022 -0.2800809184845022 -0.2930669593948626 -0.2930669593948626 -0.2930669593948626 -0.1702073957512825 -0.1702073957512825 -0.1702073957512825 -0.1797768928507238 
-0.1797768928507238 -0.1797768928507238 0.3037145297986329 0.3037145297986329 0.3037145297986329 0.3096199592051747 0.3096199592051747 0.3096199592051747 0.1327319373881403 
0.1327319373881403 0.1327319373881403 0.1267134579678036 0.1267134579678036 0.1267134579678036 -0.2553614670573857 -0.2553614670573857 -0.2553614670573857 -0.2522880790201872 
-0.2522880790201872 -0.2522880790201872 -0.2603667763955014 -0.2603667763955014 -0.2603667763955014 -0.2516256505513411 -0.2516256505513411 -0.2516256505513411 0.5439096214115342 
0.5439096214115342 0.5439096214115342 0.5518001769695727 0.5518001769695727 0.5518001769695727 -0.1603937555588552 -0.1603937555588552 -0.1603937555588552 -0.1662544816119053 
-0.1662544816119053 -0.1662544816119053 0.02745238834679153 0.02745238834679153 0.02745238834679153 0.03524114300475691 0.03524114300475691 0.03524114300475691 -0.6015247899535696 
-0.6015247899535696 -0.6015247899535696 -0.613280595253072 -0.613280595253072 -0.613280595253072 0.09443031710371615 0.09443031710371615 0.09443031710371615 0.09823433545928319 
0.09823433545928319 0.09823433545928319 0.6610956639111448 0.6610956639111448 0.6610956639111448 0.6700962274661599 0.6700962274661599 0.6700962274661599 -0.6085305788332227 
-0.6085305788332227 -0.6085305788332227 -0.6065114608783279 -0.6065114608783279 -0.6065114608783279 0.1087078263140288 0.1087078263140288 0.1087078263140288 0.112832690422619 
0.112832690422619 0.112832690422619 0.06608242987387702 0.06608242987387702 0.06608242987387702 0.07021903721681448 0.07021903721681448 0.07021903721681448 -0.1798998477024739 
-0.1798998477024739 -0.1798998477024739 -0.1877078761923041 -0.1877078761923041 -0.1877078761923041 -0.4728786194903867 -0.4728786194903867 -0.4728786194903867 -0.4892572522099066 
-0.4892572522099066 -0.4892572522099066 0.7504723593400233 0.7504723593400233 0.7504723593400233 0.7437821332220074 0.7437821332220074 0.7437821332220074 -0.1399054858334369 
-0.1399054858334369 -0.1399054858334369 -0.1501086506529258 -0.1501086506529258 -0.1501086506529258 -0.3357416770596029 -0.3357416770596029 -0.3357416770596029 -0.3472693988471398 
-0.3472693988471398 -0.3472693988471398 -0.09119776289595989 -0.09119776289595989 -0.09119776289595989 -0.07695030800599563 -0.07695030800599563 -0.07695030800599563 0.0230144417372777 
0.0230144417372777 0.0230144417372777 0.02834625639489121 0.02834625639489121 0.02834625639489121 -0.03730346884685765 -0.03730346884685765 -0.03730346884685765 -0.03835043542314937 
-0.03835043542314937 -0.03835043542314937 -0.08561289022759339 -0.08561289022759339 -0.08561289022759339 -0.0861670305613868 -0.0861670305613868 -0.0861670305613868 0.6284965283947319 
0.6284965283947319 0.6284965283947319 0.6385202976531092 0.6385202976531092 0.6385202976531092 0.07484615241090321 0.07484615241090321 0.07484615241090321 0.07966440012152984 
0.07966440012152984 0.07966440012152984 -0.07024162030889426 -0.07024162030889426 -0.07024162030889426 -0.06402345006852588 -0.06402345006852588 -0.06402345006852588 -0.09322756165429269 
-0.09322756165429269 -0.09322756165429269 -0.1092837617381607 -0.1092837617381607 -0.1092837617381607 0.3723991522106887 0.3723991522106887 0.3723991522106887 0.3905611358996457 
0.3905611358996457 0.3905611358996457 -0.3345591292408304 -0.3345591292408304 -0.3345591292408304 -0.3325192202040654 -0.3325192202040654 -0.3325192202040654 0.76208569699855 
0.76208569699855 0.76208569699855 0.7542136354112842 0.7542136354112842 0.7542136354112842 -0.691740967976602 -0.691740967976602 -0.691740967976602 -0.6892988865094238 
-0.6892988865094238 -0.6892988865094238 0.7829032883572024 0.7829032883572024 0.7829032883572024 0.7752519582980093 0.7752519582980093 0.7752519582980093 0.2708583268253513 
0.2708583268253513 0.2708583268253513 0.2573993607042385 0.2573993607042385 0.2573993607042385 -0.3633699419993455 -0.3633699419993455 -0.3633699419993455 -0.3660921468925876 
-0.3660921468925876 -0.3660921468925876 0.233523835951753 0.233523835951753 0.233523835951753 0.2432806672490442 0.2432806672490442 0.2432806672490442 -0.6081399399703392 
-0.6081399399703392 -0.6081399399703392 -0.5994162741091882 -0.5994162741091882 -0.5994162741091882 0.2594478213216715 0.2594478213216715 0.2594478213216715 0.265600611189915 
0.265600611189915 0.265600611189915 0.3667177530853623 0.3667177530853623 0.3667177530853623 0.3735365242160666 0.3735365242160666 0.3735365242160666 -0.2558183539842061 
-0.2558183539842061 -0.2558183539842061 -0.2480682425611446 -0.2480682425611446 -0.2480682425611446 0.239230390355391 0.239230390355391 0.239230390355391 0.2271806712514384 