Title = Triangle150
FileType = Solution
Variables = q
Zone T = Triangle150
ZoneType = FETriangle
Nodes = 212082
Elements = 70694
DataPacking = Block
StrandID = 9
SolutionTime = 0.8
-0.1518673679339753 -0.1518673679339753 -0.1518673679339753 -0.1644621883526661 -0.1644621883526661 -0.1644621883526661 -0.1435824336861803 -0.1435824336861803 -0.1435824336861803 0.3546798290564924 
0.3546798290564924 0.3546798290564924 0.3657894208151228 0.3657894208151228 0.3657894208151228 0.3773312469057558 0.3773312469057558 0.3773312469057558 0.5547062362940482 
0.5547062362940482 0.5547062362940482 0.5576273838097396 0.5576273838097396 0.5576273838097396 0.5604676539364237 0.5604676539364237 0.5604676539364237 0.2188182258223097 
0.2188182258223097 0.2188182258223097 0.2231976792894406 0.2231976792894406 0.2231976792894406 0.238835296519162 0.238835296519162 0.238835296519162 0.8686031645495669 
0.8686031645495669 0.8686031645495669 0.8573495752903961 0.8573495752903961 0.8573495752903961 0.8582699713242958 0.8582699713242958 0.8582699713242958 -0.2765759810178544 
-0.2765759810178544 -0.2765759810178544 -0.2860532444769733 -0.2860532444769733 -0.2860532444769733 -0.2853038884745782 -0.2853038884745782 -0.2853038884745782 -0.7663410478873308 
-0.7663410478873308 -0.7663410478873308 -0.7809731193645627 -0.7809731193645627 -0.7809731193645627 -0.0971951930347234 -0.0971951930347234 -0.0971951930347234 -0.08874928801108463 
-0.08874928801108463 -0.08874928801108463 -0.840991832938647 -0.840991832938647 -0.840991832938647 -0.8488028624626347 -0.8488028624626347 -0.8488028624626347 -0.7536030673973708 
-0.7536030673973708 -0.7536030673973708 -0.7614944020389408 -0.7614944020389408 -0.7614944020389408 0.6221230989982534 0.6221230989982534 0.6221230989982534 0.6138718306853127 
0.6138718306853127 0.6138718306853127 0.1374306145294056 0.1374306145294056 0.1374306145294056 0.1647665782507532 0.1647665782507532 0.1647665782507532 0.9301135122958257 
0.9301135122958257 0.9301135122958257 0.9309718596057897 0.9309718596057897 0.9309718596057897 0.05716843335536295 0.05716843335536295 0.05716843335536295 0.06539053736600046 
0.06539053736600046 0.06539053736600046 -0.2464801787411028 -0.2464801787411028 -0.2464801787411028 -0.2302479824521587 -0.2302479824521587 -0.2302479824521587 0.3377042888114445 
0.3377042888114445 0.3377042888114445 0.3293202927048111 0.3293202927048111 0.3293202927048111 -0.6789936012618157 -0.6789936012618157 -0.6789936012618157 -0.6725921926149617 
-0.6725921926149617 -0.6725921926149617 -0.7041352272959684 -0.7041352272959684 -0.7041352272959684 -0.6938032189063139 -0.6938032189063139 -0.6938032189063139 -0.1370343543866304 
-0.1370343543866304 -0.1370343543866304 -0.1253407442211899 -0.1253407442211899 -0.1253407442211899 0.07795958991054586 0.07795958991054586 0.07795958991054586 0.08811145600726147 
0.08811145600726147 0.08811145600726147 0.7241381130328086 0.7241381130328086 0.7241381130328086 0.7376545041064859 0.7376545041064859 0.7376545041064859 -0.8098767342673892 
-0.8098767342673892 -0.8098767342673892 -0.8112442893124954 -0.8112442893124954 -0.8112442893124954 0.1656398083585999 0.1656398083585999 0.1656398083585999 0.1629043902321107 
0.1629043902321107 0.1629043902321107 -0.7277487580679449 -0.7277487580679449 -0.7277487580679449 -0.7180187516580987 -0.7180187516580987 -0.7180187516580987 0.07224557571861163 
0.07224557571861163 0.07224557571861163 0.05981888986008424 0.05981888986008424 0.05981888986008424 0.2193266085744997 0.2193266085744997 0.2193266085744997 0.2207731736256593 
0.2207731736256593 0.2207731736256593 -0.560330956210092 -0.560330956210092 -0.560330956210092 -0.594150468148033 -0.594150468148033 -0.594150468148033 0.5654521137782607 
0.5654521137782607 0.5654521137782607 0.5796018420950002 0.5796018420950002 0.5796018420950002 0.9206185845409833 0.9206185845409833 0.9206185845409833 0.9194703310016668 
0.9194703310016668 0.9194703310016668 -0.4365093783036438 -0.4365093783036438 -0.4365093783036438 -0.4407227553156137 -0.4407227553156137 -0.4407227553156137 -0.3123058376438023 
-0.3123058376438023 -0.3123058376438023 -0.3295096667090623 -0.3295096667090623 -0.3295096667090623 0.5190717506829071 0.5190717506829071 0.5190717506829071 0.5139952294958798 
0.5139952294958798 0.5139952294958798 0.9277941789479295 0.9277941789479295 0.9277941789479295 0.9274103238437206 0.9274103238437206 0.9274103238437206 -0.5060798775404378 
-0.5060798775404378 -0.5060798775404378 -0.5042789660216156 -0.5042789660216156 -0.5042789660216156 -0.01560624713516205 -0.01560624713516205 -0.01560624713516205 -0.01961300965576024 
-0.01961300965576024 -0.01961300965576024 0.3948477454272054 0.3948477454272054 0.3948477454272054 0.3836030822983763 0.3836030822983763 0.3836030822983763 0.6353008969965162 
0.6353008969965162 0.6353008969965162 0.626375477657734 0.626375477657734 0.626375477657734 0.4697946087332979 0.4697946087332979 0.4697946087332979 0.468517674450121 
0.468517674450121 0.468517674450121 0.6346107273104585 0.6346107273104585 0.6346107273104585 0.6457631921357216 0.6457631921357216 0.6457631921357216 -0.5811418060727334 
-0.5811418060727334 -0.5811418060727334 -0.5866698563118626 -0.5866698563118626 -0.5866698563118626 0.5953349922004909 0.5953349922004909 0.5953349922004909 0.5926700735491122 
0.5926700735491122 0.5926700735491122 0.2650728842531869 0.2650728842531869 0.2650728842531869 0.2739999450804654 0.2739999450804654 0.2739999450804654 -0.05631558226125297 
-0.05631558226125297 -0.05631558226125297 -0.04568770392315417 -0.04568770392315417 -0.04568770392315417 -0.1508537803939339 -0.1508537803939339 -0.1508537803939339 -0.6947018267184262 
-0.6947018267184262 -0.6947018267184262 -0.684867502860613 -0.684867502860613 -0.684867502860613 -0.7135181844879299 -0.7135181844879299 -0.7135181844879299 -0.7111985758227486 
-0.7111985758227486 -0.7111985758227486 0.7628080316543634 0.7628080316543634 0.7628080316543634 0.7586055646576346 0.7586055646576346 0.7586055646576346 0.3702265140025631 
0.3702265140025631 0.3702265140025631 0.3629882866277719 0.3629882866277719 0.3629882866277719 0.02203930800022271 0.02203930800022271 0.02203930800022271 0.03779025512948086 
0.03779025512948086 0.03779025512948086 -0.7703572123556777 -0.7703572123556777 -0.7703572123556777 0.650167609083662 0.650167609083662 0.650167609083662 -0.1823010568957058 
-0.1823010568957058 -0.1823010568957058 -0.6499849066715149 -0.6499849066715149 -0.6499849066715149 0.5356612488240879 0.5356612488240879 0.5356612488240879 0.7555486643523032 
0.7555486643523032 0.7555486643523032 -0.2242911337921262 -0.2242911337921262 -0.2242911337921262 0.2189089653134445 0.2189089653134445 0.2189089653134445 -0.7327059754672938 
-0.7327059754672938 -0.7327059754672938 0.9222444255179681 0.9222444255179681 0.9222444255179681 -0.7020126807622536 -0.7020126807622536 -0.7020126807622536 -0.3156412950717974 
-0.3156412950717974 -0.3156412950717974 -0.2920906503487408 -0.2920906503487408 -0.2920906503487408 0.1849766335610418 0.1849766335610418 0.1849766335610418 0.2021234368372149 
0.2021234368372149 0.2021234368372149 0.201578997823767 0.201578997823767 0.201578997823767 0.1952124832369605 0.1952124832369605 0.1952124832369605 0.2885887063204103 
0.2885887063204103 0.2885887063204103 0.2904791154916891 0.2904791154916891 0.2904791154916891 -0.4433897428355269 -0.4433897428355269 -0.4433897428355269 -0.4592530650646174 
-0.4592530650646174 -0.4592530650646174 -0.6943720780532372 -0.6943720780532372 -0.6943720780532372 -0.6720216822999674 -0.6720216822999674 -0.6720216822999674 -0.003990857235426987 
-0.003990857235426987 -0.003990857235426987 -0.009551488129528458 -0.009551488129528458 -0.009551488129528458 0.1062721749659231 0.1062721749659231 0.1062721749659231 0.07674808802400704 
0.07674808802400704 0.07674808802400704 -0.3031640610175571 -0.3031640610175571 -0.3031640610175571 -0.2789055571805887 -0.2789055571805887 -0.2789055571805887 0.1160484143457397 
0.1160484143457397 0.1160484143457397 0.1026049836160792 0.1026049836160792 0.1026049836160792 -0.590567470060714 -0.590567470060714 -0.590567470060714 -0.5826880964184979 
-0.5826880964184979 -0.5826880964184979 -0.3222046144862625 -0.3222046144862625 -0.3222046144862625 -0.2975945836824048 -0.2975945836824048 -0.2975945836824048 -0.3060290987774689 
-0.3060290987774689 -0.3060290987774689 -0.2919696767286398 -0.2919696767286398 -0.2919696767286398 0.01619259430079982 0.01619259430079982 0.01619259430079982 0.002109659278520838 
0.002109659278520838 0.002109659278520838 0.9102821079277448 0.9102821079277448 0.9102821079277448 0.907406608933746 0.907406608933746 0.907406608933746 -0.1089515743360293 
-0.1089515743360293 -0.1089515743360293 -0.07550962670415051 -0.07550962670415051 -0.07550962670415051 0.08353484082681933 0.08353484082681933 0.08353484082681933 0.08530936204998014 
0.08530936204998014 0.08530936204998014 -0.2082706525261827 -0.2082706525261827 -0.2082706525261827 -0.2256533574700938 -0.2256533574700938 -0.2256533574700938 -0.3590138920255188 
-0.3590138920255188 -0.3590138920255188 -0.3685197370644183 -0.3685197370644183 -0.3685197370644183 0.2186672980618308 0.2186672980618308 0.2186672980618308 0.2113944619846559 
0.2113944619846559 0.2113944619846559 0.704869821458042 0.704869821458042 0.704869821458042 0.701726270261035 0.701726270261035 0.701726270261035 -0.2238282774089177 
-0.2238282774089177 -0.2238282774089177 -0.2144460576059841 -0.2144460576059841 -0.2144460576059841 -0.1745905724128415 -0.1745905724128415 -0.1745905724128415 -0.2017664699738929 
-0.2017664699738929 -0.2017664699738929 0.02132211959833767 0.02132211959833767 0.02132211959833767 0.04674817755725861 0.04674817755725861 0.04674817755725861 -0.7929543377811037 
-0.7929543377811037 -0.7929543377811037 -0.7856277158937719 -0.7856277158937719 -0.7856277158937719 0.7082351458772793 0.7082351458772793 0.7082351458772793 0.7187170274560752 
0.7187170274560752 0.7187170274560752 -0.08859202603382806 -0.08859202603382806 -0.08859202603382806 -0.1226644964298464 -0.1226644964298464 -0.1226644964298464 0.1528877772333343 
0.1528877772333343 0.1528877772333343 0.1693335980061879 0.1693335980061879 0.1693335980061879 -0.08330155012884638 -0.08330155012884638 -0.08330155012884638 -0.06919906475817879 
-0.06919906475817879 -0.06919906475817879 0.1049250400595806 0.1049250400595806 0.1049250400595806 0.09208834023245935 0.09208834023245935 0.09208834023245935 0.8713537683650243 
0.8713537683650243 0.8713537683650243 0.8649702545917672 0.8649702545917672 0.8649702545917672 -0.4577553330419735 -0.4577553330419735 -0.4577553330419735 -0.4287745760572703 
-0.4287745760572703 -0.4287745760572703 -0.905237145698546 -0.905237145698546 -0.905237145698546 -0.9048778623425764 -0.9048778623425764 -0.9048778623425764 -0.2096347058194964 
-0.2096347058194964 -0.2096347058194964 -0.2282848730907889 -0.2282848730907889 -0.2282848730907889 -0.08831884026457577 -0.08831884026457577 -0.08831884026457577 -0.07661843511763719 
-0.07661843511763719 -0.07661843511763719 -0.05136448574192687 -0.05136448574192687 -0.05136448574192687 -0.06879664684363966 -0.06879664684363966 -0.06879664684363966 0.1506599762186853 
0.1506599762186853 0.1506599762186853 0.1303158515342335 0.1303158515342335 0.1303158515342335 -0.7503915652632935 -0.7503915652632935 -0.7503915652632935 -0.7723510617174154 
-0.7723510617174154 -0.7723510617174154 -0.1550308013625335 -0.1550308013625335 -0.1550308013625335 -0.140246921951674 -0.140246921951674 -0.140246921951674 -0.8278671340988893 
-0.8278671340988893 -0.8278671340988893 -0.836528051439839 -0.836528051439839 -0.836528051439839 0.071082130798508 0.071082130798508 0.071082130798508 0.09321159666625864 
0.09321159666625864 0.09321159666625864 0.1774726212235495 0.1774726212235495 0.1774726212235495 0.1988047076172761 0.1988047076172761 0.1988047076172761 0.8630407779218559 
0.8630407779218559 0.8630407779218559 0.8709936463875609 0.8709936463875609 0.8709936463875609 -0.1593582974739429 -0.1593582974739429 -0.1593582974739429 -0.1739672659244846 
-0.1739672659244846 -0.1739672659244846 0.1282884817477652 0.1282884817477652 0.1282884817477652 0.1123519802844459 0.1123519802844459 0.1123519802844459 0.6957782578832835 
0.6957782578832835 0.6957782578832835 0.70582187582956 0.70582187582956 0.70582187582956 -0.3651466357090315 -0.3651466357090315 -0.3651466357090315 -0.3461744788816271 
-0.3461744788816271 -0.3461744788816271 -0.745793164426774 -0.745793164426774 -0.745793164426774 -0.7499809166071372 -0.7499809166071372 -0.7499809166071372 0.9192285243479712 
0.9192285243479712 0.9192285243479712 0.917325127977088 0.917325127977088 0.917325127977088 -0.1972146761556812 -0.1972146761556812 -0.1972146761556812 -0.1977027771044063 
-0.1977027771044063 -0.1977027771044063 -0.7761080262695035 -0.7761080262695035 -0.7761080262695035 -0.7914673488610876 -0.7914673488610876 -0.7914673488610876 0.04423802916268915 
0.04423802916268915 0.04423802916268915 0.07280471935416787 0.07280471935416787 0.07280471935416787 0.2649451332818411 0.2649451332818411 0.2649451332818411 0.2673121564575235 
0.2673121564575235 0.2673121564575235 0.1070794747100385 0.1070794747100385 0.1070794747100385 0.1254534847059306 0.1254534847059306 0.1254534847059306 -0.2774425493652978 
-0.2774425493652978 -0.2774425493652978 -0.2918869039353806 -0.2918869039353806 -0.2918869039353806 0.5037182564208121 0.5037182564208121 0.5037182564208121 0.4920522011755766 
0.4920522011755766 0.4920522011755766 0.2507128255653376 0.2507128255653376 0.2507128255653376 0.2414779699414133 0.2414779699414133 0.2414779699414133 -0.0647153054327594 
-0.0647153054327594 -0.0647153054327594 -0.09140578416826628 -0.09140578416826628 -0.09140578416826628 -0.8146316653804715 -0.8146316653804715 -0.8146316653804715 -0.8211109846444319 
-0.8211109846444319 -0.8211109846444319 -0.0912431423660309 -0.0912431423660309 -0.0912431423660309 -0.05823101097588539 -0.05823101097588539 -0.05823101097588539 -0.7222606051966971 
-0.7222606051966971 -0.7222606051966971 -0.7282656582998033 -0.7282656582998033 -0.7282656582998033 -0.3092795177491652 -0.3092795177491652 -0.3092795177491652 -0.262531594140558 
-0.262531594140558 -0.262531594140558 -0.289819165482499 -0.289819165482499 -0.289819165482499 -0.3001891047775535 -0.3001891047775535 -0.3001891047775535 -0.4560314653548622 
-0.4560314653548622 -0.4560314653548622 -0.471051913751552 -0.471051913751552 -0.471051913751552 0.8604317800993162 0.8604317800993162 0.8604317800993162 0.8550276687561966 
0.8550276687561966 0.8550276687561966 -0.5792379112002307 -0.5792379112002307 -0.5792379112002307 -0.5675403974175842 -0.5675403974175842 -0.5675403974175842 0.7066942137871465 
0.7066942137871465 0.7066942137871465 0.6956355732749169 0.6956355732749169 0.6956355732749169 0.1398618907128218 0.1398618907128218 0.1398618907128218 0.1344881157857039 
0.1344881157857039 0.1344881157857039 0.1231698270566381 0.1231698270566381 0.1231698270566381 0.1418234332127654 0.1418234332127654 0.1418234332127654 -0.6903468539517161 
-0.6903468539517161 -0.6903468539517161 -0.6914446092527179 -0.6914446092527179 -0.6914446092527179 -0.7106990569541027 -0.7106990569541027 -0.7106990569541027 0.1397772230456069 
0.1397772230456069 0.1397772230456069 0.1685016442786323 0.1685016442786323 0.1685016442786323 0.1688724345379244 0.1688724345379244 0.1688724345379244 0.1816616554116958 
0.1816616554116958 0.1816616554116958 0.02526081032604323 0.02526081032604323 0.02526081032604323 0.0255354102501465 0.0255354102501465 0.0255354102501465 0.04209445811939991 
0.04209445811939991 0.04209445811939991 0.07545044874072115 0.07545044874072115 0.07545044874072115 0.06061972842581193 0.06061972842581193 0.06061972842581193 0.0490393748154438 
0.0490393748154438 0.0490393748154438 0.08116794919451117 0.08116794919451117 0.08116794919451117 0.09999132948632257 0.09999132948632257 0.09999132948632257 0.1114059949606026 
0.1114059949606026 0.1114059949606026 0.6163762501410168 0.6163762501410168 0.6163762501410168 0.6132989666433576 0.6132989666433576 0.6132989666433576 0.6100738823049208 
0.6100738823049208 0.6100738823049208 0.04761495040508595 0.04761495040508595 0.04761495040508595 0.05459198029584581 0.05459198029584581 0.05459198029584581 0.05190785370275394 
0.05190785370275394 0.05190785370275394 -0.7963804835378596 -0.7963804835378596 -0.7963804835378596 -0.7943335107488309 -0.7943335107488309 -0.7943335107488309 -0.7844687250733842 
-0.7844687250733842 -0.7844687250733842 0.1830140573129835 0.1830140573129835 0.1830140573129835 0.2133805945662161 0.2133805945662161 0.2133805945662161 0.2205382322589597 
0.2205382322589597 0.2205382322589597 -0.4918569227295353 -0.4918569227295353 -0.4918569227295353 -0.4937983533345486 -0.4937983533345486 -0.4937983533345486 -0.508997755282161 
-0.508997755282161 -0.508997755282161 -0.5598793569925422 -0.5598793569925422 -0.5598793569925422 -0.5748041657509892 -0.5748041657509892 -0.5748041657509892 -0.5669595552916594 
-0.5669595552916594 -0.5669595552916594 -0.7151202295304939 -0.7151202295304939 -0.7151202295304939 -0.7139609021655169 -0.7139609021655169 -0.7139609021655169 0.07220434798526806 
0.07220434798526806 0.07220434798526806 0.05701707456862293 0.05701707456862293 0.05701707456862293 0.04609199345931485 0.04609199345931485 0.04609199345931485 0.7073605168735266 
0.7073605168735266 0.7073605168735266 0.7105422890809341 0.7105422890809341 0.7105422890809341 0.7221724798086814 0.7221724798086814 0.7221724798086814 -0.07049719575592871 
-0.07049719575592871 -0.07049719575592871 -0.08084588537967974 -0.08084588537967974 -0.08084588537967974 -0.09742898862382234 -0.09742898862382234 -0.09742898862382234 -0.7833444621974675 
-0.7833444621974675 -0.7833444621974675 -0.7915742671761439 -0.7915742671761439 -0.7915742671761439 -0.7901352812213265 -0.7901352812213265 -0.7901352812213265 0.3454830168817838 
0.3454830168817838 0.3454830168817838 0.348746714256381 0.348746714256381 0.348746714256381 0.3528046136020563 0.3528046136020563 0.3528046136020563 -0.006927162511465382 
-0.006927162511465382 -0.006927162511465382 -0.004901237807981345 -0.004901237807981345 -0.004901237807981345 0.002752121196731928 0.002752121196731928 0.002752121196731928 -0.1093442010735518 
-0.1093442010735518 -0.1093442010735518 -0.1186438275103782 -0.1186438275103782 -0.1186438275103782 0.7391744385876486 0.7391744385876486 0.7391744385876486 0.7494703618229752 
0.7494703618229752 0.7494703618229752 -0.6105657226478184 -0.6105657226478184 -0.6105657226478184 -0.6145238582916424 -0.6145238582916424 -0.6145238582916424 0.5020551464250038 
0.5020551464250038 0.5020551464250038 0.4907048214105439 0.4907048214105439 0.4907048214105439 -0.01704052623665481 -0.01704052623665481 -0.01704052623665481 -0.007961338272976511 
-0.007961338272976511 -0.007961338272976511 -0.2140174314756014 -0.2140174314756014 -0.2140174314756014 -0.2114385968010762 -0.2114385968010762 -0.2114385968010762 0.02906448720147822 
0.02906448720147822 0.02906448720147822 0.05399308597011386 0.05399308597011386 0.05399308597011386 0.4765980985352601 0.4765980985352601 0.4765980985352601 0.4708659147453525 
0.4708659147453525 0.4708659147453525 0.7717689321067246 0.7717689321067246 0.7717689321067246 0.763609485907081 0.763609485907081 0.763609485907081 -0.05407336246781173 
-0.05407336246781173 -0.05407336246781173 -0.05889685144257489 -0.05889685144257489 -0.05889685144257489 0.01326359049824554 0.01326359049824554 0.01326359049824554 0.01128748966649746 
0.01128748966649746 0.01128748966649746 -0.14841091476562 -0.14841091476562 -0.14841091476562 -0.1661925875332009 -0.1661925875332009 -0.1661925875332009 -0.250186855945759 
-0.250186855945759 -0.250186855945759 -0.2432740444491831 -0.2432740444491831 -0.2432740444491831 0.004494019045490202 0.004494019045490202 0.004494019045490202 0.02349152816018895 
0.02349152816018895 0.02349152816018895 -0.002900029064174948 -0.002900029064174948 -0.002900029064174948 -0.0009798833910284635 -0.0009798833910284635 -0.0009798833910284635 -0.8187753342656038 
-0.8187753342656038 -0.8187753342656038 -0.8192466262018 -0.8192466262018 -0.8192466262018 0.6338476294251015 0.6338476294251015 0.6338476294251015 0.6125214522947628 
0.6125214522947628 0.6125214522947628 -0.7590602359971359 -0.7590602359971359 -0.7590602359971359 -0.7677661424255393 -0.7677661424255393 -0.7677661424255393 -0.2633267713464844 
-0.2633267713464844 -0.2633267713464844 -0.2573443811249783 -0.2573443811249783 -0.2573443811249783 0.6264424956961446 0.6264424956961446 0.6264424956961446 0.6154157743283901 
0.6154157743283901 0.6154157743283901 0.04123507121906746 0.04123507121906746 0.04123507121906746 0.02940684610654327 0.02940684610654327 0.02940684610654327 0.1523839510292987 
0.1523839510292987 0.1523839510292987 0.1501413178077005 0.1501413178077005 0.1501413178077005 0.2616634496270521 0.2616634496270521 0.2616634496270521 0.2456728233003511 
0.2456728233003511 0.2456728233003511 0.7105372441723523 0.7105372441723523 0.7105372441723523 0.7084169760450828 0.7084169760450828 0.7084169760450828 0.8836881225555442 
0.8836881225555442 0.8836881225555442 0.8729150240715603 0.8729150240715603 0.8729150240715603 -0.09837490507901125 -0.09837490507901125 -0.09837490507901125 -0.09698632281254715 
-0.09698632281254715 -0.09698632281254715 0.01938774524789486 0.01938774524789486 0.01938774524789486 0.04458308504473846 0.04458308504473846 0.04458308504473846 -0.7339784005977347 
-0.7339784005977347 -0.7339784005977347 -0.7326978900301668 -0.7326978900301668 -0.7326978900301668 -0.1503017576978837 -0.1503017576978837 -0.1503017576978837 -0.1532691968353387 
-0.1532691968353387 -0.1532691968353387 0.06296637651462209 0.06296637651462209 0.06296637651462209 0.06402991846566146 0.06402991846566146 0.06402991846566146 0.03094120719766322 
0.03094120719766322 0.03094120719766322 0.01807781297220097 0.01807781297220097 0.01807781297220097 0.584875797458309 0.584875797458309 0.584875797458309 0.5745789008319087 
0.5745789008319087 0.5745789008319087 -0.2213140930440826 -0.2213140930440826 -0.2213140930440826 -0.2111382344806049 -0.2111382344806049 -0.2111382344806049 -0.7546227721361525 
-0.7546227721361525 -0.7546227721361525 -0.776614616834358 -0.776614616834358 -0.776614616834358 0.3164020942114285 0.3164020942114285 0.3164020942114285 0.326869166967128 
0.326869166967128 0.326869166967128 0.5933368041770045 0.5933368041770045 0.5933368041770045 0.5880394302167349 0.5880394302167349 0.5880394302167349 0.1688403349847681 
0.1688403349847681 0.1688403349847681 0.1628017755924195 0.1628017755924195 0.1628017755924195 0.3136663880108783 0.3136663880108783 0.3136663880108783 0.3354024319148293 
0.3354024319148293 0.3354024319148293 0.6514857073220427 0.6514857073220427 0.6514857073220427 0.6376830671125767 0.6376830671125767 0.6376830671125767 -0.1133058059735875 
-0.1133058059735875 -0.1133058059735875 -0.1058159261779472 -0.1058159261779472 -0.1058159261779472 0.7475628154099205 0.7475628154099205 0.7475628154099205 0.7519301978920554 
0.7519301978920554 0.7519301978920554 -0.2188838616209157 -0.2188838616209157 -0.2188838616209157 -0.2194192937774652 -0.2194192937774652 -0.2194192937774652 0.1841886768889604 
0.1841886768889604 0.1841886768889604 0.1790675521136669 0.1790675521136669 0.1790675521136669 -0.1688732300890109 -0.1688732300890109 -0.1688732300890109 -0.1503160949913335 
-0.1503160949913335 -0.1503160949913335 -0.1504835001513011 -0.1504835001513011 -0.1504835001513011 -0.1609393458531106 -0.1609393458531106 -0.1609393458531106 0.8531585992785168 
0.8531585992785168 0.8531585992785168 0.8588280640397193 0.8588280640397193 0.8588280640397193 0.1020665917279457 0.1020665917279457 0.1020665917279457 0.09729748227399339 
0.09729748227399339 0.09729748227399339 -0.2160193060665654 -0.2160193060665654 -0.2160193060665654 -0.2278516998213865 -0.2278516998213865 -0.2278516998213865 0.1494663868798497 
0.1494663868798497 0.1494663868798497 0.137083785758567 0.137083785758567 0.137083785758567 -0.8137612776229799 -0.8137612776229799 -0.8137612776229799 -0.8119836289409097 
-0.8119836289409097 -0.8119836289409097 -0.3724990782751983 -0.3724990782751983 -0.3724990782751983 -0.3501660577447701 -0.3501660577447701 -0.3501660577447701 0.5550921285654451 
0.5550921285654451 0.5550921285654451 0.5682783099644179 0.5682783099644179 0.5682783099644179 0.2949517867956177 0.2949517867956177 0.2949517867956177 0.2997291038620226 
0.2997291038620226 0.2997291038620226 -0.2660931889790376 -0.2660931889790376 -0.2660931889790376 -0.266077892193976 -0.266077892193976 -0.266077892193976 0.2715470754381215 
0.2715470754381215 0.2715470754381215 0.2660852707611421 0.2660852707611421 0.2660852707611421 0.7449741453165256 0.7449741453165256 0.7449741453165256 0.7528487682695455 
0.7528487682695455 0.7528487682695455 -0.1721115615613206 -0.1721115615613206 -0.1721115615613206 -0.1728168898548191 -0.1728168898548191 -0.1728168898548191 0.7612687426111895 
0.7612687426111895 0.7612687426111895 0.7692352445668346 0.7692352445668346 0.7692352445668346 0.6315026228369245 0.6315026228369245 0.6315026228369245 0.6366168772712613 
0.6366168772712613 0.6366168772712613 0.1109178573387722 0.1109178573387722 0.1109178573387722 0.1001346497485483 0.1001346497485483 0.1001346497485483 0.05265708105802325 
0.05265708105802325 0.05265708105802325 0.05257123593960831 0.05257123593960831 0.05257123593960831 -0.03727362447881097 -0.03727362447881097 -0.03727362447881097 -0.04714272379844872 
-0.04714272379844872 -0.04714272379844872 0.6029297603341234 0.6029297603341234 0.6029297603341234 0.5948486962953643 0.5948486962953643 0.5948486962953643 -0.1560263620633368 
-0.1560263620633368 -0.1560263620633368 -0.1718970268848966 -0.1718970268848966 -0.1718970268848966 0.00733110202922601 0.00733110202922601 0.00733110202922601 0.006828889062969448 
0.006828889062969448 0.006828889062969448 -0.2485813211118374 -0.2485813211118374 -0.2485813211118374 -0.2607023748227777 -0.2607023748227777 -0.2607023748227777 0.1240180990582947 
0.1240180990582947 0.1240180990582947 0.140187770642006 0.140187770642006 0.140187770642006 -0.0009396778174084323 -0.0009396778174084323 -0.0009396778174084323 -0.009305478493322607 
-0.009305478493322607 -0.009305478493322607 -0.2452920513790289 -0.2452920513790289 -0.2452920513790289 -0.2570508691655357 -0.2570508691655357 -0.2570508691655357 0.3855233119114277 
0.3855233119114277 0.3855233119114277 0.3726729288299955 0.3726729288299955 0.3726729288299955 -0.4114778153178108 -0.4114778153178108 -0.4114778153178108 -0.4189464981514812 
-0.4189464981514812 -0.4189464981514812 -0.1814723046411286 -0.1814723046411286 -0.1814723046411286 -0.1800808426498753 -0.1800808426498753 -0.1800808426498753 -0.1313829998862545 
-0.1313829998862545 -0.1313829998862545 -0.1356257719245123 -0.1356257719245123 -0.1356257719245123 0.64955067283902 0.64955067283902 0.64955067283902 0.6621086783664172 
0.6621086783664172 0.6621086783664172 -0.3531783905863564 -0.3531783905863564 -0.3531783905863564 -0.3410130487177013 -0.3410130487177013 -0.3410130487177013 -0.3067262449499266 
-0.3067262449499266 -0.3067262449499266 -0.3004929917089479 -0.3004929917089479 -0.3004929917089479 -0.1938185176795958 -0.1938185176795958 -0.1938185176795958 -0.1791856237791375 
-0.1791856237791375 -0.1791856237791375 0.61698490442056 0.61698490442056 0.61698490442056 0.6055556496326624 0.6055556496326624 0.6055556496326624 -0.0865123547314533 
-0.0865123547314533 -0.0865123547314533 -0.1050515998820952 -0.1050515998820952 -0.1050515998820952 -0.1612519494870364 -0.1612519494870364 -0.1612519494870364 -0.1527928572234867 
-0.1527928572234867 -0.1527928572234867 -0.08530868092161266 -0.08530868092161266 -0.08530868092161266 -0.07095591903856782 -0.07095591903856782 -0.07095591903856782 -0.790106529020097 
-0.790106529020097 -0.790106529020097 -0.7906480775162842 -0.7906480775162842 -0.7906480775162842 -0.2453778230787562 -0.2453778230787562 -0.2453778230787562 -0.2455449019880755 
-0.2455449019880755 -0.2455449019880755 0.07459283307151976 0.07459283307151976 0.07459283307151976 0.0739153158844289 0.0739153158844289 0.0739153158844289 0.5979816463156891 
0.5979816463156891 0.5979816463156891 0.609399069890401 0.609399069890401 0.609399069890401 -0.8257187133037427 -0.8257187133037427 -0.8257187133037427 -0.8365140990796737 
-0.8365140990796737 -0.8365140990796737 0.1417925608183326 0.1417925608183326 0.1417925608183326 0.1359070411664203 0.1359070411664203 0.1359070411664203 -0.9172751785822857 
-0.9172751785822857 -0.9172751785822857 -0.9181835264122193 -0.9181835264122193 -0.9181835264122193 0.4749266677876689 0.4749266677876689 0.4749266677876689 0.4667877670440169 
0.4667877670440169 0.4667877670440169 -0.678315046801153 -0.678315046801153 -0.678315046801153 -0.666461914852688 -0.666461914852688 -0.666461914852688 0.1704931766659993 
0.1704931766659993 0.1704931766659993 0.1837259829828066 0.1837259829828066 0.1837259829828066 -0.1346470940292441 -0.1346470940292441 -0.1346470940292441 -0.1235715961754129 
-0.1235715961754129 -0.1235715961754129 0.03589515500904911 0.03589515500904911 0.03589515500904911 0.03282006587083744 0.03282006587083744 0.03282006587083744 0.925789384609693 
0.925789384609693 0.925789384609693 0.923544640534257 0.923544640534257 0.923544640534257 -0.01218666354491138 -0.01218666354491138 -0.01218666354491138 -0.01583799628436085 
-0.01583799628436085 -0.01583799628436085 0.07738573813047624 0.07738573813047624 0.07738573813047624 0.0661347758194803 0.0661347758194803 0.0661347758194803 0.001469515330737088 
0.001469515330737088 0.001469515330737088 -0.000720973707696787 -0.000720973707696787 -0.000720973707696787 -0.7383717789920544 -0.7383717789920544 -0.7383717789920544 -0.729282114815603 