Title = Quad200
FileType = Solution
Variables = q
Zone T = Quad200
ZoneType = FETriangle
Nodes = 160000
Elements = 80000
DataPacking = Block
StrandID = 18
SolutionTime = 1.7
0.505049783915879 0.505049783915879 0.505049783915879 0.505049783915879 0.5060351945505277 0.5060351945505277 0.5060351945505277 0.5060351945505277 0.5067241032571838 0.5067241032571838 
0.5067241032571838 0.5067241032571838 0.5070776235659227 0.5070776235659227 0.5070776235659227 0.5070776235659227 0.5070453690884357 0.5070453690884357 0.5070453690884357 
0.5070453690884357 0.5065641710493232 0.5065641710493232 0.5065641710493232 0.5065641710493232 0.505556377238222 0.505556377238222 0.505556377238222 0.505556377238222 
0.5039278931247028 0.5039278931247028 0.5039278931247028 0.5039278931247028 0.501566299722935 0.501566299722935 0.501566299722935 0.501566299722935 0.4983390997300159 
0.4983390997300159 0.4983390997300159 0.4983390997300159 0.4940924164782643 0.4940924164782643 0.4940924164782643 0.4940924164782643 0.4886507256992888 0.4886507256992888 
0.4886507256992888 0.4886507256992888 0.4818186220769978 0.4818186220769978 0.4818186220769978 0.4818186220769978 0.4733862891104346 0.4733862891104346 0.4733862891104346 
0.4733862891104346 0.4631413185274789 0.4631413185274789 0.4631413185274789 0.4631413185274789 0.4508907745208277 0.4508907745208277 0.4508907745208277 0.4508907745208277 
0.4364985333292355 0.4364985333292355 0.4364985333292355 0.4364985333292355 0.4199427513507824 0.4199427513507824 0.4199427513507824 0.4199427513507824 0.4013941910114146 
0.4013941910114146 0.4013941910114146 0.4013941910114146 0.381303975103281 0.381303975103281 0.381303975103281 0.381303975103281 0.3604664272328564 0.3604664272328564 
0.3604664272328564 0.3604664272328564 0.3399964110277572 0.3399964110277572 0.3399964110277572 0.3399964110277572 0.321160178507916 0.321160178507916 0.321160178507916 
0.321160178507916 0.305065428705124 0.305065428705124 0.305065428705124 0.305065428705124 0.2923401351900033 0.2923401351900033 0.2923401351900033 0.2923401351900033 
0.2829912303640252 0.2829912303640252 0.2829912303640252 0.2829912303640252 0.276520624853854 0.276520624853854 0.276520624853854 0.276520624853854 0.2721867282135617 
0.2721867282135617 0.2721867282135617 0.2721867282135617 0.2692397239462199 0.2692397239462199 0.2692397239462199 0.2692397239462199 0.2670459368626034 0.2670459368626034 
0.2670459368626034 0.2670459368626034 0.2651143632263821 0.2651143632263821 0.2651143632263821 0.2651143632263821 0.2630722289538211 0.2630722289538211 0.2630722289538211 
0.2630722289538211 0.2606262546758605 0.2606262546758605 0.2606262546758605 0.2606262546758605 0.2575276052618103 0.2575276052618103 0.2575276052618103 0.2575276052618103 
0.25354607594273 0.25354607594273 0.25354607594273 0.25354607594273 0.2484534831819086 0.2484534831819086 0.2484534831819086 0.2484534831819086 0.2420145503020701 
0.2420145503020701 0.2420145503020701 0.2420145503020701 0.2339835746328961 0.2339835746328961 0.2339835746328961 0.2339835746328961 0.2241057733248605 0.2241057733248605 
0.2241057733248605 0.2241057733248605 0.2121230724809959 0.2121230724809959 0.2121230724809959 0.2121230724809959 0.197785182035726 0.197785182035726 0.197785182035726 
0.197785182035726 0.1808682389240683 0.1808682389240683 0.1808682389240683 0.1808682389240683 0.1612056692619679 0.1612056692619679 0.1612056692619679 0.1612056692619679 
0.1387408041715241 0.1387408041715241 0.1387408041715241 0.1387408041715241 0.1136217788650679 0.1136217788650679 0.1136217788650679 0.1136217788650679 0.08638139964891185 
0.08638139964891185 0.08638139964891185 0.08638139964891185 0.05827586077900242 0.05827586077900242 0.05827586077900242 0.05827586077900242 0.03187540909787309 0.03187540909787309 
0.03187540909787309 0.03187540909787309 0.01197042836065494 0.01197042836065494 0.01197042836065494 0.01197042836065494 0.004181177877812635 0.004181177877812635 0.004181177877812635 
0.004181177877812635 0.003293757389317244 0.003293757389317244 0.003293757389317244 0.003293757389317244 0.002680794673928839 0.002680794673928839 0.002680794673928839 0.002680794673928839 
-0.006614481050413038 -0.006614481050413038 -0.006614481050413038 -0.006614481050413038 -0.0304684154078478 -0.0304684154078478 -0.0304684154078478 -0.0304684154078478 -0.05886968457179659 
-0.05886968457179659 -0.05886968457179659 -0.05886968457179659 -0.0877946830758452 -0.0877946830758452 -0.0877946830758452 -0.0877946830758452 -0.1152196726736745 -0.1152196726736745 
-0.1152196726736745 -0.1152196726736745 -0.1402001347894883 -0.1402001347894883 -0.1402001347894883 -0.1402001347894883 -0.1623663357667985 -0.1623663357667985 -0.1623663357667985 
-0.1623663357667985 -0.1816557065270819 -0.1816557065270819 -0.1816557065270819 -0.1816557065270819 -0.1981725148827171 -0.1981725148827171 -0.1981725148827171 -0.1981725148827171 
-0.2121113615140202 -0.2121113615140202 -0.2121113615140202 -0.2121113615140202 -0.2237131961526694 -0.2237131961526694 -0.2237131961526694 -0.2237131961526694 -0.2332390198373681 
-0.2332390198373681 -0.2332390198373681 -0.2332390198373681 -0.2409539724972049 -0.2409539724972049 -0.2409539724972049 -0.2409539724972049 -0.2471181030080041 -0.2471181030080041 
-0.2471181030080041 -0.2471181030080041 -0.2519821374113769 -0.2519821374113769 -0.2519821374113769 -0.2519821374113769 -0.2557879132708231 -0.2557879132708231 -0.2557879132708231 
-0.2557879132708231 -0.2587741313728281 -0.2587741313728281 -0.2587741313728281 -0.2587741313728281 -0.2611887577527601 -0.2611887577527601 -0.2611887577527601 -0.2611887577527601 
-0.2633096527211768 -0.2633096527211768 -0.2633096527211768 -0.2633096527211768 -0.2654741891985775 -0.2654741891985775 -0.2654741891985775 -0.2654741891985775 -0.2681152107081875 
-0.2681152107081875 -0.2681152107081875 -0.2681152107081875 -0.2717921533215621 -0.2717921533215621 -0.2717921533215621 -0.2717921533215621 -0.2771910661507693 -0.2771910661507693 
-0.2771910661507693 -0.2771910661507693 -0.2850523027096566 -0.2850523027096566 -0.2850523027096566 -0.2850523027096566 -0.2959942385398853 -0.2959942385398853 -0.2959942385398853 
-0.2959942385398853 -0.31026600434428 -0.31026600434428 -0.31026600434428 -0.31026600434428 -0.3275585803369207 -0.3275585803369207 -0.3275585803369207 -0.3275585803369207 
-0.3470198089154327 -0.3470198089154327 -0.3470198089154327 -0.3470198089154327 -0.3674874694242566 -0.3674874694242566 -0.3674874694242566 -0.3674874694242566 -0.387799606879949 
-0.387799606879949 -0.387799606879949 -0.387799606879949 -0.4070240593451749 -0.4070240593451749 -0.4070240593451749 -0.4070240593451749 -0.4245476593287552 -0.4245476593287552 
-0.4245476593287552 -0.4245476593287552 -0.4400562326132786 -0.4400562326132786 -0.4400562326132786 -0.4400562326132786 -0.4534637538372238 -0.4534637538372238 -0.4534637538372238 
-0.4534637538372238 -0.464834429029272 -0.464834429029272 -0.464834429029272 -0.464834429029272 -0.4743185192063807 -0.4743185192063807 -0.4743185192063807 -0.4743185192063807 
-0.4821068805383317 -0.4821068805383317 -0.4821068805383317 -0.4821068805383317 -0.4884018684462195 -0.4884018684462195 -0.4884018684462195 -0.4884018684462195 -0.4934002394168834 
-0.4934002394168834 -0.4934002394168834 -0.4934002394168834 -0.4972840227060401 -0.4972840227060401 -0.4972840227060401 -0.4972840227060401 -0.5002163469562303 -0.5002163469562303 
-0.5002163469562303 -0.5002163469562303 -0.502340186874795 -0.502340186874795 -0.502340186874795 -0.502340186874795 -0.5037787383927157 -0.5037787383927157 -0.5037787383927157 
-0.5037787383927157 -0.504636635442743 -0.504636635442743 -0.504636635442743 -0.504636635442743 -0.5050015437193537 -0.5050015437193537 -0.5050015437193537 -0.5050015437193537 
-0.5049458675405994 -0.5049458675405994 -0.5049458675405994 -0.5049458675405994 -0.5045285821866078 -0.5045285821866078 -0.5045285821866078 -0.5045285821866078 -0.5037966507684076 
-0.5037966507684076 -0.5037966507684076 -0.5037966507684076 -0.5027862793263563 -0.5027862793263563 -0.5027862793263563 -0.5027862793263563 -0.5015242028073641 -0.5015242028073641 
-0.5015242028073641 -0.5015242028073641 -0.5000287830410552 -0.5000287830410552 -0.5000287830410552 -0.5000287830410552 -0.4983109319421091 -0.4983109319421091 -0.4983109319421091 
-0.4983109319421091 -0.4963748754953308 -0.4963748754953308 -0.4963748754953308 -0.4963748754953308 -0.4942187751656395 -0.4942187751656395 -0.4942187751656395 -0.4942187751656395 
-0.4918352981529223 -0.4918352981529223 -0.4918352981529223 -0.4918352981529223 -0.4892120692741914 -0.4892120692741914 -0.4892120692741914 -0.4892120692741914 -0.4863319254542056 
-0.4863319254542056 -0.4863319254542056 -0.4863319254542056 -0.4831731848813259 -0.4831731848813259 -0.4831731848813259 -0.4831731848813259 -0.4797098767809382 -0.4797098767809382 
-0.4797098767809382 -0.4797098767809382 -0.4759119562668712 -0.4759119562668712 -0.4759119562668712 -0.4759119562668712 -0.4717455314006617 -0.4717455314006617 -0.4717455314006617 
-0.4717455314006617 -0.4671731323704185 -0.4671731323704185 -0.4671731323704185 -0.4671731323704185 -0.4621540552667471 -0.4621540552667471 -0.4621540552667471 -0.4621540552667471 
-0.4566448173165339 -0.4566448173165339 -0.4566448173165339 -0.4566448173165339 -0.4505997651722407 -0.4505997651722407 -0.4505997651722407 -0.4505997651722407 -0.4439718828675996 
-0.4439718828675996 -0.4439718828675996 -0.4439718828675996 -0.4367138511719957 -0.4367138511719957 -0.4367138511719957 -0.4367138511719957 -0.4287794148385415 -0.4287794148385415 
-0.4287794148385415 -0.4287794148385415 -0.420125117683583 -0.420125117683583 -0.420125117683583 -0.420125117683583 -0.4107124659812707 -0.4107124659812707 -0.4107124659812707 
-0.4107124659812707 -0.4005105759507387 -0.4005105759507387 -0.4005105759507387 -0.4005105759507387 -0.3894993476036632 -0.3894993476036632 -0.3894993476036632 -0.3894993476036632 
-0.3776731797218156 -0.3776731797218156 -0.3776731797218156 -0.3776731797218156 -0.3650451920029786 -0.3650451920029786 -0.3650451920029786 -0.3650451920029786 -0.351651840885667 
-0.351651840885667 -0.351651840885667 -0.351651840885667 -0.3375576936623883 -0.3375576936623883 -0.3375576936623883 -0.3375576936623883 -0.3228599493437809 -0.3228599493437809 
-0.3228599493437809 -0.3228599493437809 -0.3076920567977364 -0.3076920567977364 -0.3076920567977364 -0.3076920567977364 -0.2922254875926023 -0.2922254875926023 -0.2922254875926023 
-0.2922254875926023 -0.2766684112464025 -0.2766684112464025 -0.2766684112464025 -0.2766684112464025 -0.2612597908091245 -0.2612597908091245 -0.2612597908091245 -0.2612597908091245 
-0.2462574482770314 -0.2462574482770314 -0.2462574482770314 -0.2462574482770314 -0.2319192078227995 -0.2319192078227995 -0.2319192078227995 -0.2319192078227995 -0.2184775744849301 
-0.2184775744849301 -0.2184775744849301 -0.2184775744849301 -0.2061105754212584 -0.2061105754212584 -0.2061105754212584 -0.2061105754212584 -0.1949138241944186 -0.1949138241944186 
-0.1949138241944186 -0.1949138241944186 -0.1848802597579241 -0.1848802597579241 -0.1848802597579241 -0.1848802597579241 -0.1758928367235428 -0.1758928367235428 -0.1758928367235428 
-0.1758928367235428 -0.1677312785192882 -0.1677312785192882 -0.1677312785192882 -0.1677312785192882 -0.1600885217178232 -0.1600885217178232 -0.1600885217178232 -0.1600885217178232 
-0.1525885616103874 -0.1525885616103874 -0.1525885616103874 -0.1525885616103874 -0.1447967034941783 -0.1447967034941783 -0.1447967034941783 -0.1447967034941783 -0.136214564226282 
-0.136214564226282 -0.136214564226282 -0.136214564226282 -0.1262521131231216 -0.1262521131231216 -0.1262521131231216 -0.1262521131231216 -0.1141623235342943 -0.1141623235342943 
-0.1141623235342943 -0.1141623235342943 -0.09889859305601842 -0.09889859305601842 -0.09889859305601842 -0.09889859305601842 -0.07876439710717537 -0.07876439710717537 -0.07876439710717537 
-0.07876439710717537 -0.05031686688440037 -0.05031686688440037 -0.05031686688440037 -0.05031686688440037 -0.003196695959756798 -0.003196695959756798 -0.003196695959756798 -0.003196695959756798 
0.0475260471500111 0.0475260471500111 0.0475260471500111 0.0475260471500111 0.07737817747151263 0.07737817747151263 0.07737817747151263 0.07737817747151263 0.0983884198929672 
0.0983884198929672 0.0983884198929672 0.0983884198929672 0.1142858012848331 0.1142858012848331 0.1142858012848331 0.1142858012848331 0.1268482171386548 0.1268482171386548 
0.1268482171386548 0.1268482171386548 0.1371526058431877 0.1371526058431877 0.1371526058431877 0.1371526058431877 0.1459578113178285 0.1459578113178285 0.1459578113178285 
0.1459578113178285 0.1538571600184259 0.1538571600184259 0.1538571600184259 0.1538571600184259 0.1613486843622683 0.1613486843622683 0.1613486843622683 0.1613486843622683 
0.1688670900839169 0.1688670900839169 0.1688670900839169 0.1688670900839169 0.1767928410438938 0.1767928410438938 0.1767928410438938 0.1767928410438938 0.1854455614644225 
0.1854455614644225 0.1854455614644225 0.1854455614644225 0.1950681318955022 0.1950681318955022 0.1950681318955022 0.1950681318955022 0.2058093052771895 0.2058093052771895 
0.2058093052771895 0.2058093052771895 0.2177130360809534 0.2177130360809534 0.2177130360809534 0.2177130360809534 0.2307201857492742 0.2307201857492742 0.2307201857492742 
0.2307201857492742 0.2446834837889343 0.2446834837889343 0.2446834837889343 0.2446834837889343 0.2593920412038662 0.2593920412038662 0.2593920412038662 0.2593920412038662 
0.2745994743790107 0.2745994743790107 0.2745994743790107 0.2745994743790107 0.2900501497496691 0.2900501497496691 0.2900501497496691 0.2900501497496691 0.3055000807302166 
0.3055000807302166 0.3055000807302166 0.3055000807302166 0.3207312298899836 0.3207312298899836 0.3207312298899836 0.3207312298899836 0.3355595840248554 0.3355595840248554 
0.3355595840248554 0.3355595840248554 0.349838203163815 0.349838203163815 0.349838203163815 0.349838203163815 0.3634566715658977 0.3634566715658977 0.3634566715658977 
0.3634566715658977 0.3763382558202952 0.3763382558202952 0.3763382558202952 0.3763382558202952 0.3884358071789284 0.3884358071789284 0.3884358071789284 0.3884358071789284 
0.3997271560883368 0.3997271560883368 0.3997271560883368 0.3997271560883368 0.4102104953473676 0.4102104953473676 0.4102104953473676 0.4102104953473676 0.4199000531636269 
0.4199000531636269 0.4199000531636269 0.4199000531636269 0.428822217156195 0.428822217156195 0.428822217156195 0.428822217156195 0.4370121756005448 0.4370121756005448 
0.4370121756005448 0.4370121756005448 0.4445110818569389 0.4445110818569389 0.4445110818569389 0.4445110818569389 0.4513637120476239 0.4513637120476239 0.4513637120476239 
0.4513637120476239 0.4576165667748966 0.4576165667748966 0.4576165667748966 0.4576165667748966 0.4633163591736288 0.4633163591736288 0.4633163591736288 0.4633163591736288 
0.4685088297497741 0.4685088297497741 0.4685088297497741 0.4685088297497741 0.4732378304400438 0.4732378304400438 0.4732378304400438 0.4732378304400438 0.4775446242844977 
0.4775446242844977 0.4775446242844977 0.4775446242844977 0.4814673519031017 0.4814673519031017 0.4814673519031017 0.4814673519031017 0.4850406209828313 0.4850406209828313 
0.4850406209828313 0.4850406209828313 0.4882951797205835 0.4882951797205835 0.4882951797205835 0.4882951797205835 0.4912576389312307 0.4912576389312307 0.4912576389312307 
0.4912576389312307 0.4939502110034448 0.4939502110034448 0.4939502110034448 0.4939502110034448 0.4963904368018273 0.4963904368018273 0.4963904368018273 0.4963904368018273 
0.498590875165252 0.498590875165252 0.498590875165252 0.498590875165252 0.5005587778646845 0.5005587778646845 0.5005587778646845 0.5005587778646845 0.5022956626966507 
0.5022956626966507 0.5022956626966507 0.5022956626966507 0.5037966507684075 0.5037966507684075 0.5037966507684075 0.5037966507684075 0.5060351945505275 0.5060351945505275 
0.5060351945505275 0.5060351945505275 0.5072782990049305 0.5072782990049305 0.5072782990049305 0.5072782990049305 0.5082363535439233 0.5082363535439233 0.5082363535439233 
0.5082363535439233 0.5088783059476717 0.5088783059476717 0.5088783059476717 0.5088783059476717 0.5091622831337024 0.5091622831337024 0.5091622831337024 0.5091622831337024 
0.5090340992062216 0.5090340992062216 0.5090340992062216 0.5090340992062216 0.5084258700363331 0.5084258700363331 0.5084258700363331 0.5084258700363331 0.5072540144423802 
0.5072540144423802 0.5072540144423802 0.5072540144423802 0.5054171266971057 0.5054171266971057 0.5054171266971057 0.5054171266971057 0.5027938672271232 0.5027938672271232 
0.5027938672271232 0.5027938672271232 0.4992410020364746 0.4992410020364746 0.4992410020364746 0.4992410020364746 0.4945919940470281 0.4945919940470281 0.4945919940470281 
0.4945919940470281 0.4886568866036183 0.4886568866036183 0.4886568866036183 0.4886568866036183 0.481224785223915 0.481224785223915 0.481224785223915 0.481224785223915 
0.4720711435220729 0.4720711435220729 0.4720711435220729 0.4720711435220729 0.4609733661496299 0.4609733661496299 0.4609733661496299 0.4609733661496299 0.447739828749993 
0.447739828749993 0.447739828749993 0.447739828749993 0.4322585536365798 0.4322585536365798 0.4322585536365798 0.4322585536365798 0.4145704173233188 0.4145704173233188 
0.4145704173233188 0.4145704173233188 0.3949638119178139 0.3949638119178139 0.3949638119178139 0.3949638119178139 0.3740679775716518 0.3740679775716518 0.3740679775716518 
0.3740679775716518 0.3528909838220456 0.3528909838220456 0.3528909838220456 0.3528909838220456 0.3327253879440192 0.3327253879440192 0.3327253879440192 0.3327253879440192 
0.314876996407182 0.314876996407182 0.314876996407182 0.314876996407182 0.3002919812901858 0.3002919812901858 0.3002919812901858 0.3002919812901858 0.2892862980663402 
0.2892862980663402 0.2892862980663402 0.2892862980663402 0.2815485036741288 0.2815485036741288 0.2815485036741288 0.2815485036741288 0.2763794020358278 0.2763794020358278 
0.2763794020358278 0.2763794020358278 0.2729790500245189 0.2729790500245189 0.2729790500245189 0.2729790500245189 0.2706343939309308 0.2706343939309308 0.2706343939309308 
0.2706343939309308 0.2687846969239894 0.2687846969239894 0.2687846969239894 0.2687846969239894 0.2670105950700051 0.2670105950700051 0.2670105950700051 0.2670105950700051 
0.2649948342032281 0.2649948342032281 0.2649948342032281 0.2649948342032281 0.2624818832236991 0.2624818832236991 0.2624818832236991 0.2624818832236991 0.2592464233946057 
0.2592464233946057 0.2592464233946057 0.2592464233946057 0.255072061884544 0.255072061884544 0.255072061884544 0.255072061884544 0.2497386112452246 0.2497386112452246 
0.2497386112452246 0.2497386112452246 0.2430158631085616 0.2430158631085616 0.2430158631085616 0.2430158631085616 0.2346623125740825 0.2346623125740825 0.2346623125740825 
0.2346623125740825 0.22442811013418 0.22442811013418 0.22442811013418 0.22442811013418 0.2120624570837476 0.2120624570837476 0.2120624570837476 0.2120624570837476 
0.1973267762537509 0.1973267762537509 0.1973267762537509 0.1973267762537509 0.1800166456498219 0.1800166456498219 0.1800166456498219 0.1800166456498219 0.1599987750465615 
0.1599987750465615 0.1599987750465615 0.1599987750465615 0.1372767853280424 0.1372767853280424 0.1372767853280424 0.1372767853280424 0.1121140489382961 0.1121140489382961 
0.1121140489382961 0.1121140489382961 0.08525320711955515 0.08525320711955515 0.08525320711955515 0.08525320711955515 0.05822126866479711 0.05822126866479711 0.05822126866479711 
0.05822126866479711 0.0335526412369737 0.0335526412369737 0.0335526412369737 0.0335526412369737 0.01518443134681444 0.01518443134681444 0.01518443134681444 0.01518443134681444 
0.007690785243849953 0.007690785243849953 0.007690785243849953 0.007690785243849953 0.006575206417672592 0.006575206417672592 0.006575206417672592 0.006575206417672592 0.006102437592872158 
0.006102437592872158 0.006102437592872158 0.006102437592872158 -0.00308035320940988 -0.00308035320940988 -0.00308035320940988 -0.00308035320940988 -0.03010371138688882 -0.03010371138688882 
-0.03010371138688882 -0.03010371138688882 -0.05992588306624389 -0.05992588306624389 -0.05992588306624389 -0.05992588306624389 -0.08937700615638844 -0.08937700615638844 -0.08937700615638844 
-0.08937700615638844 -0.1168524876945974 -0.1168524876945974 -0.1168524876945974 -0.1168524876945974 -0.1416339250566598 -0.1416339250566598 -0.1416339250566598 -0.1416339250566598 
-0.1634732769666201 -0.1634732769666201 -0.1634732769666201 -0.1634732769666201 -0.1823763782950656 -0.1823763782950656 -0.1823763782950656 -0.1823763782950656 -0.1984878883208666 
-0.1984878883208666 -0.1984878883208666 -0.1984878883208666 -0.2120271171230522 -0.2120271171230522 -0.2120271171230522 -0.2120271171230522 -0.22325057323138 -0.22325057323138 
-0.22325057323138 -0.22325057323138 -0.2324294291838332 -0.2324294291838332 -0.2324294291838332 -0.2324294291838332 -0.2398359296645999 -0.2398359296645999 -0.2398359296645999 
-0.2398359296645999 -0.2457358271628639 -0.2457358271628639 -0.2457358271628639 -0.2457358271628639 -0.2503857831633707 -0.2503857831633707 -0.2503857831633707 -0.2503857831633707 
-0.2540358861445955 -0.2540358861445955 -0.2540358861445955 -0.2540358861445955 -0.2569382178855381 -0.2569382178855381 -0.2569382178855381 -0.2569382178855381 -0.2593627928678076 
-0.2593627928678076 -0.2593627928678076 -0.2593627928678076 -0.2616219195146154 -0.2616219195146154 -0.2616219195146154 -0.2616219195146154 -0.264102101284093 -0.264102101284093 
-0.264102101284093 -0.264102101284093 -0.2672970572597066 -0.2672970572597066 -0.2672970572597066 -0.2672970572597066 -0.2718241913287517 -0.2718241913287517 -0.2718241913287517 
-0.2718241913287517 -0.2783917549673206 -0.2783917549673206 -0.2783917549673206 -0.2783917549673206 -0.2876793868356758 -0.2876793868356758 -0.2876793868356758 -0.2876793868356758 
-0.3001290681191893 -0.3001290681191893 -0.3001290681191893 -0.3001290681191893 -0.3157253623421843 -0.3157253623421843 -0.3157253623421843 -0.3157253623421843 -0.3339058851998454 
-0.3339058851998454 -0.3339058851998454 -0.3339058851998454 -0.3536850874714456 -0.3536850874714456 -0.3536850874714456 -0.3536850874714456 -0.3739244195607588 -0.3739244195607588 
-0.3739244195607588 -0.3739244195607588 -0.3935965958896095 -0.3935965958896095 -0.3935965958896095 -0.3935965958896095 -0.4119390662023132 -0.4119390662023132 -0.4119390662023132 
-0.4119390662023132 -0.4284870092713499 -0.4284870092713499 -0.4284870092713499 -0.4284870092713499 -0.4430306226560637 -0.4430306226560637 -0.4430306226560637 -0.4430306226560637 
-0.4555451054020745 -0.4555451054020745 -0.4555451054020745 -0.4555451054020745 -0.466123362973261 -0.466123362973261 -0.466123362973261 -0.466123362973261 -0.4749234797145903 
-0.4749234797145903 -0.4749234797145903 -0.4749234797145903 -0.4821323967237628 -0.4821323967237628 -0.4821323967237628 -0.4821323967237628 -0.4879428974959679 -0.4879428974959679 
-0.4879428974959679 -0.4879428974959679 -0.4925401359448683 -0.4925401359448683 -0.4925401359448683 -0.4925401359448683 -0.4960944745881795 -0.4960944745881795 -0.4960944745881795 
-0.4960944745881795 -0.4987582650051442 -0.4987582650051442 -0.4987582650051442 -0.4987582650051442 -0.5006649756796502 -0.5006649756796502 -0.5006649756796502 -0.5006649756796502 
-0.5019296467841137 -0.5019296467841137 -0.5019296467841137 -0.5019296467841137 -0.5026500413686025 -0.5026500413686025 -0.5026500413686025 -0.5026500413686025 -0.5029081136329241 
-0.5029081136329241 -0.5029081136329241 -0.5029081136329241 -0.502771589989787 -0.502771589989787 -0.502771589989787 -0.502771589989787 -0.5022956626966507 -0.5022956626966507 
-0.5022956626966507 -0.5022956626966507 -0.5015242028073643 -0.5015242028073643 -0.5015242028073643 -0.5015242028073643 -0.5004909937436058 -0.5004909937436058 -0.5004909937436058 
-0.5004909937436058 -0.4992209192399399 -0.4992209192399399 -0.4992209192399399 -0.4992209192399399 -0.497730979883344 -0.497730979883344 -0.497730979883344 -0.497730979883344 
-0.4960311481705682 -0.4960311481705682 -0.4960311481705682 -0.4960311481705682 -0.4941250745592977 -0.4941250745592977 -0.4941250745592977 -0.4941250745592977 -0.4920106594735965 
-0.4920106594735965 -0.4920106594735965 -0.4920106594735965 -0.4896805381882419 -0.4896805381882419 -0.4896805381882419 -0.4896805381882419 -0.4871225380971476 -0.4871225380971476 
-0.4871225380971476 -0.4871225380971476 -0.4843198946129558 -0.4843198946129558 -0.4843198946129558 -0.4843198946129558 -0.4812514736021458 -0.4812514736021458 -0.4812514736021458 
-0.4812514736021458 -0.477891961644736 -0.477891961644736 -0.477891961644736 -0.477891961644736 -0.4742120391962677 -0.4742120391962677 -0.4742120391962677 -0.4742120391962677 
-0.4701785623611389 -0.4701785623611389 -0.4701785623611389 -0.4701785623611389 -0.46575477986241 -0.46575477986241 -0.46575477986241 -0.46575477986241 -0.4609006160298951 
-0.4609006160298951 -0.4609006160298951 -0.4609006160298951 -0.4555730546756136 -0.4555730546756136 -0.4555730546756136 -0.4555730546756136 -0.4497266632068393 -0.4497266632068393 
-0.4497266632068393 -0.4497266632068393 -0.4433143012661396 -0.4433143012661396 -0.4433143012661396 -0.4433143012661396 -0.4362880635928255 -0.4362880635928255 -0.4362880635928255 
-0.4362880635928255 -0.4286005121800144 -0.4286005121800144 -0.4286005121800144 -0.4286005121800144 -0.4202062573053827 -0.4202062573053827 -0.4202062573053827 -0.4202062573053827 
-0.4110639494395652 -0.4110639494395652 -0.4110639494395652 -0.4110639494395652 -0.4011387424296716 -0.4011387424296716 -0.4011387424296716 -0.4011387424296716 -0.3904052796682498 
-0.3904052796682498 -0.3904052796682498 -0.3904052796682498 -0.3788512346357267 -0.3788512346357267 -0.3788512346357267 -0.3788512346357267 -0.3664813987144649 -0.3664813987144649 
-0.3664813987144649 -0.3664813987144649 -0.3533222435486268 -0.3533222435486268 -0.3533222435486268 -0.3533222435486268 -0.3394267809466927 -0.3394267809466927 -0.3394267809466927 
-0.3394267809466927 -0.3248793871935817 -0.3248793871935817 -0.3248793871935817 -0.3248793871935817 -0.3098000388989749 -0.3098000388989749 -0.3098000388989749 -0.3098000388989749 
-0.2943471213695699 -0.2943471213695699 -0.2943471213695699 -0.2943471213695699 -0.278717639110345 -0.278717639110345 -0.278717639110345 -0.278717639110345 -0.2631433515038576 
-0.2631433515038576 -0.2631433515038576 -0.2631433515038576 -0.2478812262591709 -0.2478812262591709 -0.2478812262591709 -0.2478812262591709 -0.2331969021512536 -0.2331969021512536 
-0.2331969021512536 -0.2331969021512536 -0.2193408956642277 -0.2193408956642277 -0.2193408956642277 -0.2193408956642277 -0.2065192685233968 -0.2065192685233968 -0.2065192685233968 
-0.2065192685233968 -0.1948631120469631 -0.1948631120469631 -0.1948631120469631 -0.1948631120469631 -0.1844033922642899 -0.1844033922642899 -0.1844033922642899 -0.1844033922642899 
-0.1750577026365215 -0.1750577026365215 -0.1750577026365215 -0.1750577026365215 -0.1666321222145491 -0.1666321222145491 -0.1666321222145491 -0.1666321222145491 -0.1588355944894033 
-0.1588355944894033 -0.1588355944894033 -0.1588355944894033 -0.1512989903456718 -0.1512989903456718 -0.1512989903456718 -0.1512989903456718 -0.1435889403469751 -0.1435889403469751 
-0.1435889403469751 -0.1435889403469751 -0.1352074172415415 -0.1352074172415415 -0.1352074172415415 -0.1352074172415415 -0.1255686561774344 -0.1255686561774344 -0.1255686561774344 
-0.1255686561774344 -0.1139398345717477 -0.1139398345717477 -0.1139398345717477 -0.1139398345717477 -0.09930982198913198 -0.09930982198913198 -0.09930982198913198 -0.09930982198913198 
-0.08007115125411507 -0.08007115125411507 -0.08007115125411507 -0.08007115125411507 -0.05305456278095759 -0.05305456278095759 -0.05305456278095759 -0.05305456278095759 -0.009148795679347649 
-0.009148795679347649 -0.009148795679347649 -0.009148795679347649 0.04505159671902766 0.04505159671902766 0.04505159671902766 0.04505159671902766 0.07610037107029721 0.07610037107029721 
0.07610037107029721 0.07610037107029721 0.0978841894957577 0.0978841894957577 0.0978841894957577 0.0978841894957577 0.1143693122949213 0.1143693122949213 0.1143693122949213 
0.1143693122949213 0.127389075132816 0.127389075132816 0.127389075132816 0.127389075132816 0.1380375645629238 0.1380375645629238 0.1380375645629238 0.1380375645629238 
0.1470786357075525 0.1470786357075525 0.1470786357075525 0.1470786357075525 0.1551053455913395 0.1551053455913395 0.1551053455913395 0.1551053455913395 0.1626132125257532 
0.1626132125257532 0.1626132125257532 0.1626132125257532 0.1700349550235416 0.1700349550235416 0.1700349550235416 0.1700349550235416 0.1777528743561911 0.1777528743561911 
0.1777528743561911 0.1777528743561911 0.1860956725853107 0.1860956725853107 0.1860956725853107 0.1860956725853107 0.1953249164473856 0.1953249164473856 0.1953249164473856 
0.1953249164473856 0.2056176699204925 0.2056176699204925 0.2056176699204925 0.2056176699204925 0.2170529320079642 0.2170529320079642 0.2170529320079642 0.2170529320079642 
0.2296082938400753 0.2296082938400753 0.2296082938400753 0.2296082938400753 0.2431694330754751 0.2431694330754751 0.2431694330754751 0.2431694330754751 0.2575504828107831 
0.2575504828107831 0.2575504828107831 0.2575504828107831 0.2725202341648223 0.2725202341648223 0.2725202341648223 0.2725202341648223 0.287828588148231 0.287828588148231 
0.287828588148231 0.287828588148231 0.3032290891355624 0.3032290891355624 0.3032290891355624 0.3032290891355624 0.3184954815039088 0.3184954815039088 0.3184954815039088 
0.3184954815039088 0.3334320359161294 0.3334320359161294 0.3334320359161294 0.3334320359161294 0.3478784963302017 0.3478784963302017 0.3478784963302017 0.3478784963302017 
0.3617109492706224 0.3617109492706224 0.3617109492706224 0.3617109492706224 0.3748399326724 0.3748399326724 0.3748399326724 0.3748399326724 0.3872068994104376 