Title = Quad200
FileType = Solution
Variables = q
Zone T = Quad200
ZoneType = FETriangle
Nodes = 160000
Elements = 80000
DataPacking = Block
StrandID = 17
SolutionTime = 1.6
0.5308741478873493 0.5308741478873493 0.5308741478873493 0.5308741478873493 0.5316610610068819 0.5316610610068819 0.5316610610068819 0.5316610610068819 0.5319481003651021 0.5319481003651021 
0.5319481003651021 0.5319481003651021 0.5316504898652136 0.5316504898652136 0.5316504898652136 0.5316504898652136 0.53065606250702 0.53065606250702 0.53065606250702 
0.53065606250702 0.528818425757052 0.528818425757052 0.528818425757052 0.528818425757052 0.5259486047688583 0.5259486047688583 0.5259486047688583 0.5259486047688583 
0.5218048561472611 0.5218048561472611 0.5218048561472611 0.5218048561472611 0.5160810159104011 0.5160810159104011 0.5160810159104011 0.5160810159104011 0.5083954572939853 
0.5083954572939853 0.5083954572939853 0.5083954572939853 0.4982865899164064 0.4982865899164064 0.4982865899164064 0.4982865899164064 0.4852287212937546 0.4852287212937546 
0.4852287212937546 0.4852287212937546 0.4686953359039204 0.4686953359039204 0.4686953359039204 0.4686953359039204 0.448311423285065 0.448311423285065 0.448311423285065 
0.448311423285065 0.4241320734485327 0.4241320734485327 0.4241320734485327 0.4241320734485327 0.3970151715644022 0.3970151715644022 0.3970151715644022 0.3970151715644022 
0.3688829214845564 0.3688829214845564 0.3688829214845564 0.3688829214845564 0.3424909711143916 0.3424909711143916 0.3424909711143916 0.3424909711143916 0.3204966784010804 
0.3204966784010804 0.3204966784010804 0.3204966784010804 0.3043236459614326 0.3043236459614326 0.3043236459614326 0.3043236459614326 0.2937656253345679 0.2937656253345679 
0.2937656253345679 0.2937656253345679 0.2875624350862847 0.2875624350862847 0.2875624350862847 0.2875624350862847 0.2842441136382953 0.2842441136382953 0.2842441136382953 
0.2842441136382953 0.2826248583366534 0.2826248583366534 0.2826248583366534 0.2826248583366534 0.2819064536758203 0.2819064536758203 0.2819064536758203 0.2819064536758203 
0.2815982074225589 0.2815982074225589 0.2815982074225589 0.2815982074225589 0.2814052933471736 0.2814052933471736 0.2814052933471736 0.2814052933471736 0.2811411868892005 
0.2811411868892005 0.2811411868892005 0.2811411868892005 0.2806706978918264 0.2806706978918264 0.2806706978918264 0.2806706978918264 0.2798757554126816 0.2798757554126816 
0.2798757554126816 0.2798757554126816 0.2786354300438444 0.2786354300438444 0.2786354300438444 0.2786354300438444 0.2768142545938727 0.2768142545938727 0.2768142545938727 
0.2768142545938727 0.2742553220924542 0.2742553220924542 0.2742553220924542 0.2742553220924542 0.2707762575572478 0.2707762575572478 0.2707762575572478 0.2707762575572478 
0.2661671347923718 0.2661671347923718 0.2661671347923718 0.2661671347923718 0.2601900304507994 0.2601900304507994 0.2601900304507994 0.2601900304507994 0.2525803885733607 
0.2525803885733607 0.2525803885733607 0.2525803885733607 0.2430508048993882 0.2430508048993882 0.2430508048993882 0.2430508048993882 0.231298264814642 0.231298264814642 
0.231298264814642 0.231298264814642 0.2170163860507945 0.2170163860507945 0.2170163860507945 0.2170163860507945 0.1999151604090675 0.1999151604090675 0.1999151604090675 
0.1999151604090675 0.1797527917267714 0.1797527917267714 0.1797527917267714 0.1797527917267714 0.1563890240487822 0.1563890240487822 0.1563890240487822 0.1563890240487822 
0.1298802103059863 0.1298802103059863 0.1298802103059863 0.1298802103059863 0.1006594509441986 0.1006594509441986 0.1006594509441986 0.1006594509441986 0.0698836705815756 
0.0698836705815756 0.0698836705815756 0.0698836705815756 0.04006771464105305 0.04006771464105305 0.04006771464105305 0.04006771464105305 0.01610953798243455 0.01610953798243455 
0.01610953798243455 0.01610953798243455 0.005018185909738337 0.005018185909738337 0.005018185909738337 0.005018185909738337 0.003512027196162627 0.003512027196162627 0.003512027196162627 
0.003512027196162627 0.003446108830737501 0.003446108830737501 0.003446108830737501 0.003446108830737501 0.003405731449546489 0.003405731449546489 0.003405731449546489 0.003405731449546489 
0.002176110381757818 0.002176110381757818 0.002176110381757818 0.002176110381757818 -0.01183077962068507 -0.01183077962068507 -0.01183077962068507 -0.01183077962068507 -0.03973477525434868 
-0.03973477525434868 -0.03973477525434868 -0.03973477525434868 -0.07142488971294456 -0.07142488971294456 -0.07142488971294456 -0.07142488971294456 -0.1028416665416589 -0.1028416665416589 
-0.1028416665416589 -0.1028416665416589 -0.1320717958404803 -0.1320717958404803 -0.1320717958404803 -0.1320717958404803 -0.1582846421202806 -0.1582846421202806 -0.1582846421202806 
-0.1582846421202806 -0.1812117352756548 -0.1812117352756548 -0.1812117352756548 -0.1812117352756548 -0.2008819700972099 -0.2008819700972099 -0.2008819700972099 -0.2008819700972099 
-0.217482841419989 -0.217482841419989 -0.217482841419989 -0.217482841419989 -0.2312836140626809 -0.2312836140626809 -0.2312836140626809 -0.2312836140626809 -0.2425901779819172 
-0.2425901779819172 -0.2425901779819172 -0.2425901779819172 -0.2517173355418098 -0.2517173355418098 -0.2517173355418098 -0.2517173355418098 -0.2589715582070621 -0.2589715582070621 
-0.2589715582070621 -0.2589715582070621 -0.2646405140811701 -0.2646405140811701 -0.2646405140811701 -0.2646405140811701 -0.2689871314659007 -0.2689871314659007 -0.2689871314659007 
-0.2689871314659007 -0.2722467287429451 -0.2722467287429451 -0.2722467287429451 -0.2722467287429451 -0.2746263184507702 -0.2746263184507702 -0.2746263184507702 -0.2746263184507702 
-0.2763057369363231 -0.2763057369363231 -0.2763057369363231 -0.2763057369363231 -0.2774407759459014 -0.2774407759459014 -0.2774407759459014 -0.2774407759459014 -0.2781690617588455 
-0.2781690617588455 -0.2781690617588455 -0.2781690617588455 -0.2786202327686986 -0.2786202327686986 -0.2786202327686986 -0.2786202327686986 -0.2789332812879949 -0.2789332812879949 
-0.2789332812879949 -0.2789332812879949 -0.2792859203703384 -0.2792859203703384 -0.2792859203703384 -0.2792859203703384 -0.2799430822080353 -0.2799430822080353 -0.2799430822080353 
-0.2799430822080353 -0.2813317353595863 -0.2813317353595863 -0.2813317353595863 -0.2813317353595863 -0.2841395803006908 -0.2841395803006908 -0.2841395803006908 -0.2841395803006908 
-0.2893997011444711 -0.2893997011444711 -0.2893997011444711 -0.2893997011444711 -0.2984476597298396 -0.2984476597298396 -0.2984476597298396 -0.2984476597298396 -0.3125705680067893 
-0.3125705680067893 -0.3125705680067893 -0.3125705680067893 -0.3323024321812981 -0.3323024321812981 -0.3323024321812981 -0.3323024321812981 -0.3567781910293242 -0.3567781910293242 
-0.3567781910293242 -0.3567781910293242 -0.3838187203981197 -0.3838187203981197 -0.3838187203981197 -0.3838187203981197 -0.410811015449548 -0.410811015449548 -0.410811015449548 
-0.410811015449548 -0.4356596514552816 -0.4356596514552816 -0.4356596514552816 -0.4356596514552816 -0.4572013589097976 -0.4572013589097976 -0.4572013589097976 -0.4572013589097976 
-0.4751000180704137 -0.4751000180704137 -0.4751000180704137 -0.4751000180704137 -0.4895373742651707 -0.4895373742651707 -0.4895373742651707 -0.4895373742651707 -0.5009327732734365 
-0.5009327732734365 -0.5009327732734365 -0.5009327732734365 -0.5097658115352078 -0.5097658115352078 -0.5097658115352078 -0.5097658115352078 -0.5164881940451937 -0.5164881940451937 
-0.5164881940451937 -0.5164881940451937 -0.5214903697155489 -0.5214903697155489 -0.5214903697155489 -0.5214903697155489 -0.525095582217545 -0.525095582217545 -0.525095582217545 
-0.525095582217545 -0.5275653021188171 -0.5275653021188171 -0.5275653021188171 -0.5275653021188171 -0.5291081324405186 -0.5291081324405186 -0.5291081324405186 -0.5291081324405186 
-0.5298888036953427 -0.5298888036953427 -0.5298888036953427 -0.5298888036953427 -0.530036057140855 -0.530036057140855 -0.530036057140855 -0.530036057140855 -0.5296492971469101 
-0.5296492971469101 -0.5296492971469101 -0.5296492971469101 -0.5288039791052379 -0.5288039791052379 -0.5288039791052379 -0.5288039791052379 -0.5275552853337913 -0.5275552853337913 
-0.5275552853337913 -0.5275552853337913 -0.5259414773309252 -0.5259414773309252 -0.5259414773309252 -0.5259414773309252 -0.523986571818937 -0.523986571818937 -0.523986571818937 
-0.523986571818937 -0.5217025007358443 -0.5217025007358443 -0.5217025007358443 -0.5217025007358443 -0.5190908939347614 -0.5190908939347614 -0.5190908939347614 -0.5190908939347614 
-0.5161442283582136 -0.5161442283582136 -0.5161442283582136 -0.5161442283582136 -0.5128468651345873 -0.5128468651345873 -0.5128468651345873 -0.5128468651345873 -0.5091759018282216 
-0.5091759018282216 -0.5091759018282216 -0.5091759018282216 -0.505101895926566 -0.505101895926566 -0.505101895926566 -0.505101895926566 -0.500589522188055 -0.500589522188055 
-0.500589522188055 -0.500589522188055 -0.495598222085917 -0.495598222085917 -0.495598222085917 -0.495598222085917 -0.4900829056536781 -0.4900829056536781 -0.4900829056536781 
-0.4900829056536781 -0.4839947697164387 -0.4839947697164387 -0.4839947697164387 -0.4839947697164387 -0.4772823010545904 -0.4772823010545904 -0.4772823010545904 -0.4772823010545904 
-0.4698925382788699 -0.4698925382788699 -0.4698925382788699 -0.4698925382788699 -0.4617726714932099 -0.4617726714932099 -0.4617726714932099 -0.4617726714932099 -0.4528720628377592 
-0.4528720628377592 -0.4528720628377592 -0.4528720628377592 -0.4431447714741291 -0.4431447714741291 -0.4431447714741291 -0.4431447714741291 -0.4325526603710621 -0.4325526603710621 
-0.4325526603710621 -0.4325526603710621 -0.4210691447687508 -0.4210691447687508 -0.4210691447687508 -0.4210691447687508 -0.4086836068491151 -0.4086836068491151 -0.4086836068491151 
-0.4086836068491151 -0.3954064389496416 -0.3954064389496416 -0.3954064389496416 -0.3954064389496416 -0.3812745772524764 -0.3812745772524764 -0.3812745772524764 -0.3812745772524764 
-0.3663572362891001 -0.3663572362891001 -0.3663572362891001 -0.3663572362891001 -0.3507613400257331 -0.3507613400257331 -0.3507613400257331 -0.3507613400257331 -0.3346358635902426 
-0.3346358635902426 -0.3346358635902426 -0.3346358635902426 -0.3181739670114285 -0.3181739670114285 -0.3181739670114285 -0.3181739670114285 -0.3016114760789047 -0.3016114760789047 
-0.3016114760789047 -0.3016114760789047 -0.285220072224757 -0.285220072224757 -0.285220072224757 -0.285220072224757 -0.2692937112394932 -0.2692937112394932 -0.2692937112394932 
-0.2692937112394932 -0.2541275897954334 -0.2541275897954334 -0.2541275897954334 -0.2541275897954334 -0.2399906573072774 -0.2399906573072774 -0.2399906573072774 -0.2399906573072774 
-0.2270951356217324 -0.2270951356217324 -0.2270951356217324 -0.2270951356217324 -0.215568991220261 -0.215568991220261 -0.215568991220261 -0.215568991220261 -0.2054383218743551 
-0.2054383218743551 -0.2054383218743551 -0.2054383218743551 -0.1966247385640213 -0.1966247385640213 -0.1966247385640213 -0.1966247385640213 -0.1889580657665936 -0.1889580657665936 
-0.1889580657665936 -0.1889580657665936 -0.1821992246111245 -0.1821992246111245 -0.1821992246111245 -0.1821992246111245 -0.1760650111951349 -0.1760650111951349 -0.1760650111951349 
-0.1760650111951349 -0.1702470456214888 -0.1702470456214888 -0.1702470456214888 -0.1702470456214888 -0.1644202769884276 -0.1644202769884276 -0.1644202769884276 -0.1644202769884276 
-0.1582396658631763 -0.1582396658631763 -0.1582396658631763 -0.1582396658631763 -0.1513251815756903 -0.1513251815756903 -0.1513251815756903 -0.1513251815756903 -0.1432342539045787 
-0.1432342539045787 -0.1432342539045787 -0.1432342539045787 -0.133416555881677 -0.133416555881677 -0.133416555881677 -0.133416555881677 -0.1211354266464963 -0.1211354266464963 
-0.1211354266464963 -0.1211354266464963 -0.1053115516845984 -0.1053115516845984 -0.1053115516845984 -0.1053115516845984 -0.0841487714264585 -0.0841487714264585 -0.0841487714264585 
-0.0841487714264585 -0.0539829863865124 -0.0539829863865124 -0.0539829863865124 -0.0539829863865124 -0.004112657934389453 -0.004112657934389453 -0.004112657934389453 -0.004112657934389453 
0.05036098421003277 0.05036098421003277 0.05036098421003277 0.05036098421003277 0.08229464184251697 0.08229464184251697 0.08229464184251697 0.08229464184251697 0.1045405983515266 
0.1045405983515266 0.1045405983515266 0.1045405983515266 0.1211471556747747 0.1211471556747747 0.1211471556747747 0.1211471556747747 0.1340238221504336 0.1340238221504336 
0.1340238221504336 0.1340238221504336 0.144296793170713 0.144296793170713 0.144296793170713 0.144296793170713 0.1527259493319954 0.1527259493319954 0.1527259493319954 
0.1527259493319954 0.1598732003023495 0.1598732003023495 0.1598732003023495 0.1598732003023495 0.1661851876830409 0.1661851876830409 0.1661851876830409 0.1661851876830409 
0.1720403978185627 0.1720403978185627 0.1720403978185627 0.1720403978185627 0.1777783428336449 0.1777783428336449 0.1777783428336449 0.1777783428336449 0.1837169052074619 
0.1837169052074619 0.1837169052074619 0.1837169052074619 0.1901591788606533 0.1901591788606533 0.1901591788606533 0.1901591788606533 0.1973895025146461 0.1973895025146461 
0.1973895025146461 0.1973895025146461 0.2056590199232874 0.2056590199232874 0.2056590199232874 0.2056590199232874 0.2151635990390298 0.2151635990390298 0.2151635990390298 
0.2151635990390298 0.2260201320089991 0.2260201320089991 0.2260201320089991 0.2260201320089991 0.2382490559955734 0.2382490559955734 0.2382490559955734 0.2382490559955734 
0.2517696157760699 0.2517696157760699 0.2517696157760699 0.2517696157760699 0.2664100904598647 0.2664100904598647 0.2664100904598647 0.2664100904598647 0.2819301780067046 
0.2819301780067046 0.2819301780067046 0.2819301780067046 0.2980495457469704 0.2980495457469704 0.2980495457469704 0.2980495457469704 0.3144762305800995 0.3144762305800995 
0.3144762305800995 0.3144762305800995 0.3309303432642361 0.3309303432642361 0.3309303432642361 0.3309303432642361 0.347160952350369 0.347160952350369 0.347160952350369 
0.347160952350369 0.3629560220347351 0.3629560220347351 0.3629560220347351 0.3629560220347351 0.3781464638228035 0.3781464638228035 0.3781464638228035 0.3781464638228035 
0.3926058176689776 0.3926058176689776 0.3926058176689776 0.3926058176689776 0.4062470603201141 0.4062470603201141 0.4062470603201141 0.4062470603201141 0.4190177890778262 
0.4190177890778262 0.4190177890778262 0.4190177890778262 0.4308947118668595 0.4308947118668595 0.4308947118668595 0.4308947118668595 0.4418780772545196 0.4418780772545196 
0.4418780772545196 0.4418780772545196 0.4519864366148451 0.4519864366148451 0.4519864366148451 0.4519864366148451 0.4612519513624836 0.4612519513624836 0.4612519513624836 
0.4612519513624836 0.4697163339551536 0.4697163339551536 0.4697163339551536 0.4697163339551536 0.4774274305738098 0.4774274305738098 0.4774274305738098 0.4774274305738098 
0.4844364044302914 0.4844364044302914 0.4844364044302914 0.4844364044302914 0.490795451727212 0.490795451727212 0.490795451727212 0.490795451727212 0.4965559698502305 
0.4965559698502305 0.4965559698502305 0.4965559698502305 0.5017670938791861 0.5017670938791861 0.5017670938791861 0.5017670938791861 0.5064745189979882 0.5064745189979882 
0.5064745189979882 0.5064745189979882 0.5107195302328766 0.5107195302328766 0.5107195302328766 0.5107195302328766 0.5145381655098114 0.5145381655098114 0.5145381655098114 
0.5145381655098114 0.5179604423265377 0.5179604423265377 0.5179604423265377 0.5179604423265377 0.5210095809609139 0.5210095809609139 0.5210095809609139 0.5210095809609139 
0.5237011562103584 0.5237011562103584 0.5237011562103584 0.5237011562103584 0.5260421073676096 0.5260421073676096 0.5260421073676096 0.5260421073676096 0.5280295282559693 
0.5280295282559693 0.5280295282559693 0.5280295282559693 0.5296492971469101 0.5296492971469101 0.5296492971469101 0.5296492971469101 0.5316610610068815 0.5316610610068815 
0.5316610610068815 0.5316610610068815 0.5328576918810886 0.5328576918810886 0.5328576918810886 0.5328576918810886 0.5335771807616649 0.5335771807616649 0.5335771807616649 
0.5335771807616649 0.5337493432261228 0.5337493432261228 0.5337493432261228 0.5337493432261228 0.5332779065639897 0.5332779065639897 0.5332779065639897 0.5332779065639897 
0.5320345833672884 0.5320345833672884 0.5320345833672884 0.5320345833672884 0.5298502673226826 0.5298502673226826 0.5298502673226826 0.5298502673226826 0.5265041049899176 
0.5265041049899176 0.5265041049899176 0.5265041049899176 0.5217098901927506 0.5217098901927506 0.5217098901927506 0.5217098901927506 0.5151006413302304 0.5151006413302304 
0.5151006413302304 0.5151006413302304 0.5062153306849646 0.5062153306849646 0.5062153306849646 0.5062153306849646 0.4944989652008145 0.4944989652008145 0.4944989652008145 
0.4944989652008145 0.4793413189939718 0.4793413189939718 0.4793413189939718 0.4793413189939718 0.4602000077822804 0.4602000077822804 0.4602000077822804 0.4602000077822804 
0.4368645642444553 0.4368645642444553 0.4368645642444553 0.4368645642444553 0.4098712854888439 0.4098712854888439 0.4098712854888439 0.4098712854888439 0.3809063395956179 
0.3809063395956179 0.3809063395956179 0.3809063395956179 0.3527799720924598 0.3527799720924598 0.3527799720924598 0.3527799720924598 0.3285782999207356 0.3285782999207356 
0.3285782999207356 0.3285782999207356 0.3103134885594941 0.3103134885594941 0.3103134885594941 0.3103134885594941 0.298175396401762 0.298175396401762 0.298175396401762 
0.298175396401762 0.2909742085343316 0.2909742085343316 0.2909742085343316 0.2909742085343316 0.2871123430189507 0.2871123430189507 0.2871123430189507 0.2871123430189507 
0.2852421688688574 0.2852421688688574 0.2852421688688574 0.2852421688688574 0.2844453515685215 0.2844453515685215 0.2844453515685215 0.2844453515685215 0.284161263887138 
0.284161263887138 0.284161263887138 0.284161263887138 0.2840615141177522 0.2840615141177522 0.2840615141177522 0.2840615141177522 0.2839482715501999 0.2839482715501999 
0.2839482715501999 0.2839482715501999 0.2836880020068877 0.2836880020068877 0.2836880020068877 0.2836880020068877 0.2831720780747746 0.2831720780747746 0.2831720780747746 
0.2831720780747746 0.282294110104493 0.282294110104493 0.282294110104493 0.282294110104493 0.2809368384697983 0.2809368384697983 0.2809368384697983 0.2809368384697983 
0.2789643473317652 0.2789643473317652 0.2789643473317652 0.2789643473317652 0.2762173149959922 0.2762173149959922 0.2762173149959922 0.2762173149959922 0.2725101786021831 
0.2725101786021831 0.2725101786021831 0.2725101786021831 0.2676297848157679 0.2676297848157679 0.2676297848157679 0.2676297848157679 0.2613355671002241 0.2613355671002241 
0.2613355671002241 0.2613355671002241 0.2533616599640125 0.2533616599640125 0.2533616599640125 0.2533616599640125 0.2434216852795208 0.2434216852795208 0.2434216852795208 
0.2434216852795208 0.2312173063666121 0.2312173063666121 0.2312173063666121 0.2312173063666121 0.2164522671745991 0.2164522671745991 0.2164522671745991 0.2164522671745991 
0.1988550158232637 0.1988550158232637 0.1988550158232637 0.1988550158232637 0.1782162293585179 0.1782162293585179 0.1782162293585179 0.1782162293585179 0.1544550131451625 
0.1544550131451625 0.1544550131451625 0.1544550131451625 0.1277429662054818 0.1277429662054818 0.1277429662054818 0.1277429662054818 0.09873329933875721 0.09873329933875721 
0.09873329933875721 0.09873329933875721 0.06890998352598379 0.06890998352598379 0.06890998352598379 0.06890998352598379 0.04090914537655983 0.04090914537655983 0.04090914537655983 
0.04090914537655983 0.01888398030550107 0.01888398030550107 0.01888398030550107 0.01888398030550107 0.008667622494980501 0.008667622494980501 0.008667622494980501 0.008667622494980501 
0.00697726600535283 0.00697726600535283 0.00697726600535283 0.00697726600535283 0.006855213203017371 0.006855213203017371 0.006855213203017371 0.006855213203017371 0.006813728830972074 
0.006813728830972074 0.006813728830972074 0.006813728830972074 0.005974833277290211 0.005974833277290211 0.005974833277290211 0.005974833277290211 -0.009422716427317387 -0.009422716427317387 
-0.009422716427317387 -0.009422716427317387 -0.04042129990499276 -0.04042129990499276 -0.04042129990499276 -0.04042129990499276 -0.07339495342483091 -0.07339495342483091 -0.07339495342483091 
-0.07339495342483091 -0.1051573083815402 -0.1051573083815402 -0.1051573083815402 -0.1051573083815402 -0.1342644090332014 -0.1342644090332014 -0.1342644090332014 -0.1342644090332014 
-0.1601222399580722 -0.1601222399580722 -0.1601222399580722 -0.1601222399580722 -0.1825859102509068 -0.1825859102509068 -0.1825859102509068 -0.1825859102509068 -0.2017531387547695 
-0.2017531387547695 -0.2017531387547695 -0.2017531387547695 -0.2178517576763306 -0.2178517576763306 -0.2178517576763306 -0.2178517576763306 -0.2311749555114141 -0.2311749555114141 
-0.2311749555114141 -0.2311749555114141 -0.2420421974609596 -0.2420421974609596 -0.2420421974609596 -0.2420421974609596 -0.2507750756196062 -0.2507750756196062 -0.2507750756196062 
-0.2507750756196062 -0.2576824995999282 -0.2576824995999282 -0.2576824995999282 -0.2576824995999282 -0.2630519553550941 -0.2630519553550941 -0.2630519553550941 -0.2630519553550941 
-0.2671447225414987 -0.2671447225414987 -0.2671447225414987 -0.2671447225414987 -0.2701937523908522 -0.2701937523908522 -0.2701937523908522 -0.2701937523908522 -0.2724036180644338 
-0.2724036180644338 -0.2724036180644338 -0.2724036180644338 -0.2739525645760192 -0.2739525645760192 -0.2739525645760192 -0.2739525645760192 -0.2749972341256994 -0.2749972341256994 
-0.2749972341256994 -0.2749972341256994 -0.2756813020166609 -0.2756813020166609 -0.2756813020166609 -0.2756813020166609 -0.2761503055790535 -0.2761503055790535 -0.2761503055790535 
-0.2761503055790535 -0.2765765819237374 -0.2765765819237374 -0.2765765819237374 -0.2765765819237374 -0.2772001954597795 -0.2772001954597795 -0.2772001954597795 -0.2772001954597795 
-0.2783923663610871 -0.2783923663610871 -0.2783923663610871 -0.2783923663610871 -0.2807418823158786 -0.2807418823158786 -0.2807418823158786 -0.2807418823158786 -0.2851402564071197 
-0.2851402564071197 -0.2851402564071197 -0.2851402564071197 -0.2927838097404097 -0.2927838097404097 -0.2927838097404097 -0.2927838097404097 -0.3049426280557795 -0.3049426280557795 
-0.3049426280557795 -0.3049426280557795 -0.3223999866339122 -0.3223999866339122 -0.3223999866339122 -0.3223999866339122 -0.344798531327824 -0.344798531327824 -0.344798531327824 
-0.344798531327824 -0.3704726365670861 -0.3704726365670861 -0.3704726365670861 -0.3704726365670861 -0.3970466230616687 -0.3970466230616687 -0.3970466230616687 -0.3970466230616687 
-0.4223338542116636 -0.4223338542116636 -0.4223338542116636 -0.4223338542116636 -0.4448984609935578 -0.4448984609935578 -0.4448984609935578 -0.4448984609935578 -0.4641155918596509 
-0.4641155918596509 -0.4641155918596509 -0.4641155918596509 -0.4799485123616685 -0.4799485123616685 -0.4799485123616685 -0.4799485123616685 -0.4926832444204975 -0.4926832444204975 
-0.4926832444204975 -0.4926832444204975 -0.5027330880829197 -0.5027330880829197 -0.5027330880829197 -0.5027330880829197 -0.5105265138899288 -0.5105265138899288 -0.5105265138899288 
-0.5105265138899288 -0.5164548776216746 -0.5164548776216746 -0.5164548776216746 -0.5164548776216746 -0.5208542559296081 -0.5208542559296081 -0.5208542559296081 -0.5208542559296081 
-0.5240038518760202 -0.5240038518760202 -0.5240038518760202 -0.5240038518760202 -0.5261311879244065 -0.5261311879244065 -0.5261311879244065 -0.5261311879244065 -0.5274193033807344 
-0.5274193033807344 -0.5274193033807344 -0.5274193033807344 -0.5280138792208249 -0.5280138792208249 -0.5280138792208249 -0.5280138792208249 -0.5280295282559693 -0.5280295282559693 
-0.5280295282559693 -0.5280295282559693 -0.5275552853337914 -0.5275552853337914 -0.5275552853337914 -0.5275552853337914 -0.5266588728624462 -0.5266588728624462 -0.5266588728624462 
-0.5266588728624462 -0.525389831543225 -0.525389831543225 -0.525389831543225 -0.525389831543225 -0.5237824227027811 -0.5237824227027811 -0.5237824227027811 -0.5237824227027811 
-0.5218579255105273 -0.5218579255105273 -0.5218579255105273 -0.5218579255105273 -0.5196264659932091 -0.5196264659932091 -0.5196264659932091 -0.5196264659932091 -0.5170886181250857 
-0.5170886181250857 -0.5170886181250857 -0.5170886181250857 -0.5142364391169005 -0.5142364391169005 -0.5142364391169005 -0.5142364391169005 -0.5110543405957438 -0.5110543405957438 
-0.5110543405957438 -0.5110543405957438 -0.5075198233290878 -0.5075198233290878 -0.5075198233290878 -0.5075198233290878 -0.503604096914839 -0.503604096914839 -0.503604096914839 
-0.503604096914839 -0.4992726339747955 -0.4992726339747955 -0.4992726339747955 -0.4992726339747955 -0.4944857117135679 -0.4944857117135679 -0.4944857117135679 -0.4944857117135679 
-0.4891989959336443 -0.4891989959336443 -0.4891989959336443 -0.4891989959336443 -0.4833642261169964 -0.4833642261169964 -0.4833642261169964 -0.4833642261169964 -0.4769300646761375 
-0.4769300646761375 -0.4769300646761375 -0.4769300646761375 -0.4698431793007818 -0.4698431793007818 -0.4698431793007818 -0.4698431793007818 -0.4620496337348047 -0.4620496337348047 
-0.4620496337348047 -0.4620496337348047 -0.4534966679399429 -0.4534966679399429 -0.4534966679399429 -0.4534966679399429 -0.4441349519243186 -0.4441349519243186 -0.4441349519243186 
-0.4441349519243186 -0.4339213960862179 -0.4339213960862179 -0.4339213960862179 -0.4339213960862179 -0.422822590917782 -0.422822590917782 -0.422822590917782 -0.422822590917782 
-0.4108189246707981 -0.4108189246707981 -0.4108189246707981 -0.4108189246707981 -0.3979093811782632 -0.3979093811782632 -0.3979093811782632 -0.3979093811782632 -0.3841169408409927 
-0.3841169408409927 -0.3841169408409927 -0.3841169408409927 -0.3694943826617868 -0.3694943826617868 -0.3694943826617868 -0.3694943826617868 -0.3541300998914391 -0.3541300998914391 
-0.3541300998914391 -0.3541300998914391 -0.3381532852835378 -0.3381532852835378 -0.3381532852835378 -0.3381532852835378 -0.3217375157022659 -0.3217375157022659 -0.3217375157022659 
-0.3217375157022659 -0.305101401664458 -0.305101401664458 -0.305101401664458 -0.305101401664458 -0.2885046548287453 -0.2885046548287453 -0.2885046548287453 -0.2885046548287453 
-0.2722378449788777 -0.2722378449788777 -0.2722378449788777 -0.2722378449788777 -0.2566045504417362 -0.2566045504417362 -0.2566045504417362 -0.2566045504417362 -0.2418958762533697 
-0.2418958762533697 -0.2418958762533697 -0.2418958762533697 -0.2283595724231336 -0.2283595724231336 -0.2283595724231336 -0.2283595724231336 -0.216168823206065 -0.216168823206065 
-0.216168823206065 -0.216168823206065 -0.2053979267026316 -0.2053979267026316 -0.2053979267026316 -0.2053979267026316 -0.1960117450893259 -0.1960117450893259 -0.1960117450893259 
-0.1960117450893259 -0.1878719925912017 -0.1878719925912017 -0.1878719925912017 -0.1878719925912017 -0.1807574244018587 -0.1807574244018587 -0.1807574244018587 -0.1807574244018587 
-0.1743900373960506 -0.1743900373960506 -0.1743900373960506 -0.1743900373960506 -0.168458192310303 -0.168458192310303 -0.168458192310303 -0.168458192310303 -0.1626300508785684 
-0.1626300508785684 -0.1626300508785684 -0.1626300508785684 -0.1565544945737596 -0.1565544945737596 -0.1565544945737596 -0.1565544945737596 -0.1498492055306493 -0.1498492055306493 
-0.1498492055306493 -0.1498492055306493 -0.1420754644523206 -0.1420754644523206 -0.1420754644523206 -0.1420754644523206 -0.1326956512307405 -0.1326956512307405 -0.1326956512307405 
-0.1326956512307405 -0.1209999608307341 -0.1209999608307341 -0.1209999608307341 -0.1209999608307341 -0.1059636472270305 -0.1059636472270305 -0.1059636472270305 -0.1059636472270305 
-0.08591495763153381 -0.08591495763153381 -0.08591495763153381 -0.08591495763153381 -0.05755301274306777 -0.05755301274306777 -0.05755301274306777 -0.05755301274306777 -0.01171011775580876 
-0.01171011775580876 -0.01171011775580876 -0.01171011775580876 0.04721036702138518 0.04721036702138518 0.04721036702138518 0.04721036702138518 0.08061357380387404 0.08061357380387404 
0.08061357380387404 0.08061357380387404 0.1037955352635054 0.1037955352635054 0.1037955352635054 0.1037955352635054 0.1211167204104898 0.1211167204104898 0.1211167204104898 
0.1211167204104898 0.1345623026805031 0.1345623026805031 0.1345623026805031 0.1345623026805031 0.1452862832096817 0.1452862832096817 0.1452862832096817 0.1452862832096817 
0.1540619344051937 0.1540619344051937 0.1540619344051937 0.1540619344051937 0.16145789928991 0.16145789928991 0.16145789928991 0.16145789928991 0.1679228293779439 
0.1679228293779439 0.1679228293779439 0.1679228293779439 0.1738330836797752 0.1738330836797752 0.1738330836797752 0.1738330836797752 0.1795225785686147 0.1795225785686147 
0.1795225785686147 0.1795225785686147 0.1853015981474463 0.1853015981474463 0.1853015981474463 0.1853015981474463 0.1914663215697265 0.1914663215697265 0.1914663215697265 
0.1914663215697265 0.1982987743156964 0.1982987743156964 0.1982987743156964 0.1982987743156964 0.206056854326618 0.206056854326618 0.206056854326618 0.206056854326618 
0.2149557974316746 0.2149557974316746 0.2149557974316746 0.2149557974316746 0.2251453187883757 0.2251453187883757 0.2251453187883757 0.2251453187883757 0.2366891806464357 
0.2366891806464357 0.2366891806464357 0.2366891806464357 0.2495542106338328 0.2495542106338328 0.2495542106338328 0.2495542106338328 0.2636130235834803 0.2636130235834803 
0.2636130235834803 0.2636130235834803 0.2786600932751319 0.2786600932751319 0.2786600932751319 0.2786600932751319 0.2944367947994891 0.2944367947994891 0.2944367947994891 
0.2944367947994891 0.3106593594108752 0.3106593594108752 0.3106593594108752 0.3106593594108752 0.3270444337849963 0.3270444337849963 0.3270444337849963 0.3270444337849963 
0.3433290003863548 0.3433290003863548 0.3433290003863548 0.3433290003863548 0.3592835672943434 0.3592835672943434 0.3592835672943434 0.3592835672943434 0.3747190785479241 