Title = Quad200
FileType = Solution
Variables = q
Zone T = Quad200
ZoneType = FETriangle
Nodes = 160000
Elements = 80000
DataPacking = Block
StrandID = 21
SolutionTime = 2
0.4373171550323385 0.4373171550323385 0.4373171550323385 0.4373171550323385 0.4383385577013146 0.4383385577013146 0.4383385577013146 0.4383385577013146 0.4392367424994719 0.4392367424994719 
0.4392367424994719 0.4392367424994719 0.4400002863286233 0.4400002863286233 0.4400002863286233 0.4400002863286233 0.4406143730013854 0.4406143730013854 0.4406143730013854 
0.4406143730013854 0.4410605005371177 0.4410605005371177 0.4410605005371177 0.4410605005371177 0.4413161723253266 0.4413161723253266 0.4413161723253266 0.4413161723253266 
0.4413545829549589 0.4413545829549589 0.4413545829549589 0.4413545829549589 0.4411443929910893 0.4411443929910893 0.4411443929910893 0.4411443929910893 0.4406495416836658 
0.4406495416836658 0.4406495416836658 0.4406495416836658 0.4398289913531449 0.4398289913531449 0.4398289913531449 0.4398289913531449 0.4386366317647707 0.4386366317647707 
0.4386366317647707 0.4386366317647707 0.4370213184154051 0.4370213184154051 0.4370213184154051 0.4370213184154051 0.4349270930633303 0.4349270930633303 0.4349270930633303 
0.4349270930633303 0.4322936485196101 0.4322936485196101 0.4322936485196101 0.4322936485196101 0.4290571140677244 0.4290571140677244 0.4290571140677244 0.4290571140677244 
0.4251512544155298 0.4251512544155298 0.4251512544155298 0.4251512544155298 0.4205091930303957 0.4205091930303957 0.4205091930303957 0.4205091930303957 0.4150657880637401 
0.4150657880637401 0.4150657880637401 0.4150657880637401 0.4087608016461507 0.4087608016461507 0.4087608016461507 0.4087608016461507 0.4015430033224717 0.4015430033224717 
0.4015430033224717 0.4015430033224717 0.3933753224607203 0.3933753224607203 0.3933753224607203 0.3933753224607203 0.3842410916263455 0.3842410916263455 0.3842410916263455 
0.3842410916263455 0.374151273092336 0.374151273092336 0.374151273092336 0.374151273092336 0.3631522959575069 0.3631522959575069 0.3631522959575069 0.3631522959575069 
0.3513337141365583 0.3513337141365583 0.3513337141365583 0.3513337141365583 0.338834310518323 0.338834310518323 0.338834310518323 0.338834310518323 0.3258445724416755 
0.3258445724416755 0.3258445724416755 0.3258445724416755 0.3126028407669087 0.3126028407669087 0.3126028407669087 0.3126028407669087 0.2993822950679446 0.2993822950679446 
0.2993822950679446 0.2993822950679446 0.2864668867038248 0.2864668867038248 0.2864668867038248 0.2864668867038248 0.2741169173294599 0.2741169173294599 0.2741169173294599 
0.2741169173294599 0.262529065746965 0.262529065746965 0.262529065746965 0.262529065746965 0.2517998307296896 0.2517998307296896 0.2517998307296896 0.2517998307296896 
0.2419029037506254 0.2419029037506254 0.2419029037506254 0.2419029037506254 0.2326877432271348 0.2326877432271348 0.2326877432271348 0.2326877432271348 0.2238993417046853 
0.2238993417046853 0.2238993417046853 0.2238993417046853 0.2152118579979267 0.2152118579979267 0.2152118579979267 0.2152118579979267 0.2062656422095175 0.2062656422095175 
0.2062656422095175 0.2062656422095175 0.1966991946654646 0.1966991946654646 0.1966991946654646 0.1966991946654646 0.1861723782678548 0.1861723782678548 0.1861723782678548 
0.1861723782678548 0.1743816811206772 0.1743816811206772 0.1743816811206772 0.1743816811206772 0.1610709978042357 0.1610709978042357 0.1610709978042357 0.1610709978042357 
0.1460425525505673 0.1460425525505673 0.1460425525505673 0.1460425525505673 0.1291736076102123 0.1291736076102123 0.1291736076102123 0.1291736076102123 0.1104476658286079 
0.1104476658286079 0.1104476658286079 0.1104476658286079 0.09001554114154986 0.09001554114154986 0.09001554114154986 0.09001554114154986 0.06830444667166391 0.06830444667166391 
0.06830444667166391 0.06830444667166391 0.04616601985024409 0.04616601985024409 0.04616601985024409 0.04616601985024409 0.02484604374263873 0.02484604374263873 0.02484604374263873 
0.02484604374263873 0.003029069633806899 0.003029069633806899 0.003029069633806899 0.003029069633806899 -0.02260051434321495 -0.02260051434321495 -0.02260051434321495 -0.02260051434321495 
-0.04545874493670943 -0.04545874493670943 -0.04545874493670943 -0.04545874493670943 -0.06834997125021278 -0.06834997125021278 -0.06834997125021278 -0.06834997125021278 -0.09037789464749871 
-0.09037789464749871 -0.09037789464749871 -0.09037789464749871 -0.1108787889944303 -0.1108787889944303 -0.1108787889944303 -0.1108787889944303 -0.1295393610077686 -0.1295393610077686 
-0.1295393610077686 -0.1295393610077686 -0.1462771106838156 -0.1462771106838156 -0.1462771106838156 -0.1462771106838156 -0.1611500594193324 -0.1611500594193324 -0.1611500594193324 
-0.1611500594193324 -0.17430911650181 -0.17430911650181 -0.17430911650181 -0.17430911650181 -0.1859736949126613 -0.1859736949126613 -0.1859736949126613 -0.1859736949126613 
-0.1964178133089456 -0.1964178133089456 -0.1964178133089456 -0.1964178133089456 -0.2059597722685575 -0.2059597722685575 -0.2059597722685575 -0.2059597722685575 -0.2149504153715779 
-0.2149504153715779 -0.2149504153715779 -0.2149504153715779 -0.2237557595977392 -0.2237557595977392 -0.2237557595977392 -0.2237557595977392 -0.232731244622884 -0.232731244622884 
-0.232731244622884 -0.232731244622884 -0.2421880224323278 -0.2421880224323278 -0.2421880224323278 -0.2421880224323278 -0.2523563844437628 -0.2523563844437628 -0.2523563844437628 
-0.2523563844437628 -0.2633555883289488 -0.2633555883289488 -0.2633555883289488 -0.2633555883289488 -0.2751799379742098 -0.2751799379742098 -0.2751799379742098 -0.2751799379742098 
-0.2877064461720468 -0.2877064461720468 -0.2877064461720468 -0.2877064461720468 -0.3007218304319889 -0.3007218304319889 -0.3007218304319889 -0.3007218304319889 -0.3139603696631488 
-0.3139603696631488 -0.3139603696631488 -0.3139603696631488 -0.3271424040402653 -0.3271424040402653 -0.3271424040402653 -0.3271424040402653 -0.3400057376038166 -0.3400057376038166 
-0.3400057376038166 -0.3400057376038166 -0.3523264344998311 -0.3523264344998311 -0.3523264344998311 -0.3523264344998311 -0.3639291459035848 -0.3639291459035848 -0.3639291459035848 
-0.3639291459035848 -0.3746891592340387 -0.3746891592340387 -0.3746891592340387 -0.3746891592340387 -0.3845289525922398 -0.3845289525922398 -0.3845289525922398 -0.3845289525922398 
-0.3934117431962346 -0.3934117431962346 -0.3934117431962346 -0.3934117431962346 -0.4013338772752854 -0.4013338772752854 -0.4013338772752854 -0.4013338772752854 -0.408317252065401 
-0.408317252065401 -0.408317252065401 -0.408317252065401 -0.4144024331320329 -0.4144024331320329 -0.4144024331320329 -0.4144024331320329 -0.4196427631328035 -0.4196427631328035 
-0.4196427631328035 -0.4196427631328035 -0.4240995298943005 -0.4240995298943005 -0.4240995298943005 -0.4240995298943005 -0.4278381354266418 -0.4278381354266418 -0.4278381354266418 
-0.4278381354266418 -0.4309251483124598 -0.4309251483124598 -0.4309251483124598 -0.4309251483124598 -0.4334261028677463 -0.4334261028677463 -0.4334261028677463 -0.4334261028677463 
-0.4354039111991252 -0.4354039111991252 -0.4354039111991252 -0.4354039111991252 -0.4369177673068179 -0.4369177673068179 -0.4369177673068179 -0.4369177673068179 -0.4380224390969645 
-0.4380224390969645 -0.4380224390969645 -0.4380224390969645 -0.4387678610717951 -0.4387678610717951 -0.4387678610717951 -0.4387678610717951 -0.4391989559135794 -0.4391989559135794 
-0.4391989559135794 -0.4391989559135794 -0.4393556265490588 -0.4393556265490588 -0.4393556265490588 -0.4393556265490588 -0.4392728792735597 -0.4392728792735597 -0.4392728792735597 
-0.4392728792735597 -0.4389810942926065 -0.4389810942926065 -0.4389810942926065 -0.4389810942926065 -0.4385061913464015 -0.4385061913464015 -0.4385061913464015 -0.4385061913464015 
-0.437869888620506 -0.437869888620506 -0.437869888620506 -0.437869888620506 -0.4370900180230753 -0.4370900180230753 -0.4370900180230753 -0.4370900180230753 -0.4361808331397248 
-0.4361808331397248 -0.4361808331397248 -0.4361808331397248 -0.4351532995475088 -0.4351532995475088 -0.4351532995475088 -0.4351532995475088 -0.4340153597605185 -0.4340153597605185 
-0.4340153597605185 -0.4340153597605185 -0.4327721677227964 -0.4327721677227964 -0.4327721677227964 -0.4327721677227964 -0.4314262897457276 -0.4314262897457276 -0.4314262897457276 
-0.4314262897457276 -0.4299778703389958 -0.4299778703389958 -0.4299778703389958 -0.4299778703389958 -0.4284247627614314 -0.4284247627614314 -0.4284247627614314 -0.4284247627614314 
-0.4267626253151067 -0.4267626253151067 -0.4267626253151067 -0.4267626253151067 -0.4249849854388985 -0.4249849854388985 -0.4249849854388985 -0.4249849854388985 -0.4230832745591268 
-0.4230832745591268 -0.4230832745591268 -0.4230832745591268 -0.4210468374943868 -0.4210468374943868 -0.4210468374943868 -0.4210468374943868 -0.4188629641018033 -0.4188629641018033 
-0.4188629641018033 -0.4188629641018033 -0.4165168850648898 -0.4165168850648898 -0.4165168850648898 -0.4165168850648898 -0.413991716735229 -0.413991716735229 -0.413991716735229 
-0.413991716735229 -0.4112684372228681 -0.4112684372228681 -0.4112684372228681 -0.4112684372228681 -0.4083258703693805 -0.4083258703693805 -0.4083258703693805 -0.4083258703693805 
-0.4051406870082693 -0.4051406870082693 -0.4051406870082693 -0.4051406870082693 -0.4016874339199934 -0.4016874339199934 -0.4016874339199934 -0.4016874339199934 -0.3979386022598921 
-0.3979386022598921 -0.3979386022598921 -0.3979386022598921 -0.3938647486648947 -0.3938647486648947 -0.3938647486648947 -0.3938647486648947 -0.3894346837449097 -0.3894346837449097 
-0.3894346837449097 -0.3894346837449097 -0.3846157445502055 -0.3846157445502055 -0.3846157445502055 -0.3846157445502055 -0.3793741695795961 -0.3793741695795961 -0.3793741695795961 
-0.3793741695795961 -0.3736755968727565 -0.3736755968727565 -0.3736755968727565 -0.3736755968727565 -0.3674857075966039 -0.3674857075966039 -0.3674857075966039 -0.3674857075966039 
-0.3607710390415166 -0.3607710390415166 -0.3607710390415166 -0.3607710390415166 -0.3534999916725509 -0.3534999916725509 -0.3534999916725509 -0.3534999916725509 -0.3456440541656621 
-0.3456440541656621 -0.3456440541656621 -0.3456440541656621 -0.337179267181957 -0.337179267181957 -0.337179267181957 -0.337179267181957 -0.3280879394738914 -0.3280879394738914 
-0.3280879394738914 -0.3280879394738914 -0.3183606165400154 -0.3183606165400154 -0.3183606165400154 -0.3183606165400154 -0.307998279249569 -0.307998279249569 -0.307998279249569 
-0.307998279249569 -0.2970147132258093 -0.2970147132258093 -0.2970147132258093 -0.2970147132258093 -0.2854389335042823 -0.2854389335042823 -0.2854389335042823 -0.2854389335042823 
-0.2733174660436477 -0.2733174660436477 -0.2733174660436477 -0.2733174660436477 -0.2607161707729108 -0.2607161707729108 -0.2607161707729108 -0.2607161707729108 -0.2477211350607638 
-0.2477211350607638 -0.2477211350607638 -0.2477211350607638 -0.2344379747113571 -0.2344379747113571 -0.2344379747113571 -0.2344379747113571 -0.2209886724953322 -0.2209886724953322 
-0.2209886724953322 -0.2209886724953322 -0.2075049146283439 -0.2075049146283439 -0.2075049146283439 -0.2075049146283439 -0.194116852651694 -0.194116852651694 -0.194116852651694 
-0.194116852651694 -0.1809364649740442 -0.1809364649740442 -0.1809364649740442 -0.1809364649740442 -0.1680353527650783 -0.1680353527650783 -0.1680353527650783 -0.1680353527650783 
-0.1554178543799211 -0.1554178543799211 -0.1554178543799211 -0.1554178543799211 -0.1429913606830841 -0.1429913606830841 -0.1429913606830841 -0.1429913606830841 -0.1305355247486248 
-0.1305355247486248 -0.1305355247486248 -0.1305355247486248 -0.1176686554153577 -0.1176686554153577 -0.1176686554153577 -0.1176686554153577 -0.1037994023499808 -0.1037994023499808 
-0.1037994023499808 -0.1037994023499808 -0.08802524650443172 -0.08802524650443172 -0.08802524650443172 -0.08802524650443172 -0.06885486646288108 -0.06885486646288108 -0.06885486646288108 
-0.06885486646288108 -0.04324559162796535 -0.04324559162796535 -0.04324559162796535 -0.04324559162796535 -0.001422643440696307 -0.001422643440696307 -0.001422643440696307 -0.001422643440696307 
0.04202588291048842 0.04202588291048842 0.04202588291048842 0.04202588291048842 0.06827540110891656 0.06827540110891656 0.06827540110891656 0.06827540110891656 0.0878352155965479 
0.0878352155965479 0.0878352155965479 0.0878352155965479 0.1038590380857669 0.1038590380857669 0.1038590380857669 0.1038590380857669 0.1178702092726901 0.1178702092726901 
0.1178702092726901 0.1178702092726901 0.1307886503787532 0.1307886503787532 0.1307886503787532 0.1307886503787532 0.1432222992990117 0.1432222992990117 0.1432222992990117 
0.1432222992990117 0.155571783060299 0.155571783060299 0.155571783060299 0.155571783060299 0.1680781622416026 0.1680781622416026 0.1680781622416026 0.1680781622416026 
0.1808544851931906 0.1808544851931906 0.1808544851931906 0.1808544851931906 0.1939143826835236 0.1939143826835236 0.1939143826835236 0.1939143826835236 0.2072002244058044 
0.2072002244058044 0.2072002244058044 0.2072002244058044 0.2206094180777 0.2206094180777 0.2206094180777 0.2206094180777 0.2340168384901381 0.2340168384901381 
0.2340168384901381 0.2340168384901381 0.2472921928196935 0.2472921928196935 0.2472921928196935 0.2472921928196935 0.2603121814011964 0.2603121814011964 0.2603121814011964 
0.2603121814011964 0.2729680634422842 0.2729680634422842 0.2729680634422842 0.2729680634422842 0.2851695845456492 0.2851695845456492 0.2851695845456492 0.2851695845456492 
0.2968462659421475 0.2968462659421475 0.2968462659421475 0.2968462659421475 0.3079469309115426 0.3079469309115426 0.3079469309115426 0.3079469309115426 0.3184381577341459 
0.3184381577341459 0.3184381577341459 0.3184381577341459 0.3283021625846512 0.3283021625846512 0.3283021625846512 0.3283021625846512 0.3375344580074643 0.3375344580074643 
0.3375344580074643 0.3375344580074643 0.3461415105852006 0.3461415105852006 0.3461415105852006 0.3461415105852006 0.3541385327247381 0.3541385327247381 0.3541385327247381 
0.3541385327247381 0.3615474820244784 0.3615474820244784 0.3615474820244784 0.3615474820244784 0.3683953008323465 0.3683953008323465 0.3683953008323465 0.3683953008323465 
0.3747124025798654 0.3747124025798654 0.3747124025798654 0.3747124025798654 0.3805313957332218 0.3805313957332218 0.3805313957332218 0.3805313957332218 0.3858860273639046 
0.3858860273639046 0.3858860273639046 0.3858860273639046 0.3908103240061732 0.3908103240061732 0.3908103240061732 0.3908103240061732 0.3953379059709969 0.3953379059709969 
0.3953379059709969 0.3953379059709969 0.3995014514987795 0.3995014514987795 0.3995014514987795 0.3995014514987795 0.4033322883146616 0.4033322883146616 0.4033322883146616 
0.4033322883146616 0.4068600918278239 0.4068600918278239 0.4068600918278239 0.4068600918278239 0.4101126711110919 0.4101126711110919 0.4101126711110919 0.4101126711110919 
0.4131158257105194 0.4131158257105194 0.4131158257105194 0.4131158257105194 0.4158932580679068 0.4158932580679068 0.4158932580679068 0.4158932580679068 0.4184665279573249 
0.4184665279573249 0.4184665279573249 0.4184665279573249 0.4208550368374062 0.4208550368374062 0.4208550368374062 0.4208550368374062 0.423076031349649 0.423076031349649 
0.423076031349649 0.423076031349649 0.4251446173281624 0.4251446173281624 0.4251446173281624 0.4251446173281624 0.4270737918850319 0.4270737918850319 0.4270737918850319 
0.4270737918850319 0.428874467329794 0.428874467329794 0.428874467329794 0.428874467329794 0.4305554174384917 0.4305554174384917 0.4305554174384917 0.4305554174384917 
0.432123257905951 0.432123257905951 0.432123257905951 0.432123257905951 0.4335824049919786 0.4335824049919786 0.4335824049919786 0.4335824049919786 0.4349350052232117 
0.4349350052232117 0.4349350052232117 0.4349350052232117 0.4361808331397248 0.4361808331397248 0.4361808331397248 0.4361808331397248 0.4383385577013142 0.4383385577013142 
0.4383385577013142 0.4383385577013142 0.4394731362992375 0.4394731362992375 0.4394731362992375 0.4394731362992375 0.4404880691393651 0.4404880691393651 0.4404880691393651 
0.4404880691393651 0.4413746867344079 0.4413746867344079 0.4413746867344079 0.4413746867344079 0.4421210911787557 0.4421210911787557 0.4421210911787557 0.4421210911787557 
0.4427118838315351 0.4427118838315351 0.4427118838315351 0.4427118838315351 0.4431278700971802 0.4431278700971802 0.4431278700971802 0.4431278700971802 0.4433457493884474 
0.4433457493884474 0.4433457493884474 0.4433457493884474 0.4433378036019585 0.4433378036019585 0.4433378036019585 0.4433378036019585 0.4430717116200117 0.4430717116200117 
0.4430717116200117 0.4430717116200117 0.4425103233674383 0.4425103233674383 0.4425103233674383 0.4425103233674383 0.4416114353516639 0.4416114353516639 0.4416114353516639 
0.4416114353516639 0.4403277192716912 0.4403277192716912 0.4403277192716912 0.4403277192716912 0.4386067925542395 0.4386067925542395 0.4386067925542395 0.4386067925542395 
0.4363914838363757 0.4363914838363757 0.4363914838363757 0.4363914838363757 0.433620359396034 0.433620359396034 0.433620359396034 0.433620359396034 0.4302285919914804 
0.4302285919914804 0.4302285919914804 0.4302285919914804 0.4261492713196811 0.4261492713196811 0.4261492713196811 0.4261492713196811 0.4213152743759788 0.4213152743759788 
0.4213152743759788 0.4213152743759788 0.415661831955059 0.415661831955059 0.415661831955059 0.415661831955059 0.4091299393670031 0.4091299393670031 0.4091299393670031 
0.4091299393670031 0.4016707559632773 0.4016707559632773 0.4016707559632773 0.4016707559632773 0.3932511038219202 0.3932511038219202 0.3932511038219202 0.3932511038219202 
0.3838600869979328 0.3838600869979328 0.3838600869979328 0.3838600869979328 0.3735166754109938 0.3735166754109938 0.3735166754109938 0.3735166754109938 0.3622777904554431 
0.3622777904554431 0.3622777904554431 0.3622777904554431 0.3502459548916912 0.3502459548916912 0.3502459548916912 0.3502459548916912 0.3375749216054707 0.3375749216054707 
0.3375749216054707 0.3375749216054707 0.3244709566995395 0.3244709566995395 0.3244709566995395 0.3244709566995395 0.3111868751274369 0.3111868751274369 0.3111868751274369 
0.3111868751274369 0.2980060026237533 0.2980060026237533 0.2980060026237533 0.2980060026237533 0.2852146293283955 0.2852146293283955 0.2852146293283955 0.2852146293283955 
0.2730646913130835 0.2730646913130835 0.2730646913130835 0.2730646913130835 0.2617329115420812 0.2617329115420812 0.2617329115420812 0.2617329115420812 0.2512864886616469 
0.2512864886616469 0.2512864886616469 0.2512864886616469 0.2416657416835191 0.2416657416835191 0.2416657416835191 0.2416657416835191 0.2326892994285374 0.2326892994285374 
0.2326892994285374 0.2326892994285374 0.2240793729655766 0.2240793729655766 0.2240793729655766 0.2240793729655766 0.2154980334414006 0.2154980334414006 0.2154980334414006 
0.2154980334414006 0.2065838747887364 0.2065838747887364 0.2065838747887364 0.2065838747887364 0.1969817497097781 0.1969817497097781 0.1969817497097781 0.1969817497097781 
0.186363385135338 0.186363385135338 0.186363385135338 0.186363385135338 0.1744407767531247 0.1744407767531247 0.1744407767531247 0.1744407767531247 0.1609764216129798 
0.1609764216129798 0.1609764216129798 0.1609764216129798 0.1457954600060489 0.1457954600060489 0.1457954600060489 0.1457954600060489 0.1288064456729089 0.1288064456729089 
0.1288064456729089 0.1288064456729089 0.1100418757449123 0.1100418757449123 0.1100418757449123 0.1100418757449123 0.08973577901879749 0.08973577901879749 0.08973577901879749 
0.08973577901879749 0.06845073132778701 0.06845073132778701 0.06845073132778701 0.06845073132778701 0.04720056833598237 0.04720056833598237 0.04720056833598237 0.04720056833598237 
0.02719022180083364 0.02719022180083364 0.02719022180083364 0.02719022180083364 0.00744623831225413 0.00744623831225413 0.00744623831225413 0.00744623831225413 -0.02099332689789313 
-0.02099332689789313 -0.02099332689789313 -0.02099332689789313 -0.04502415586067982 -0.04502415586067982 -0.04502415586067982 -0.04502415586067982 -0.06851728793770745 -0.06851728793770745 
-0.06851728793770745 -0.06851728793770745 -0.09078991875668192 -0.09078991875668192 -0.09078991875668192 -0.09078991875668192 -0.1113219535111117 -0.1113219535111117 -0.1113219535111117 
-0.1113219535111117 -0.1298988386655442 -0.1298988386655442 -0.1298988386655442 -0.1298988386655442 -0.1464975551302654 -0.1464975551302654 -0.1464975551302654 -0.1464975551302654 
-0.1612132868206818 -0.1612132868206818 -0.1612132868206818 -0.1612132868206818 -0.1742232990545207 -0.1742232990545207 -0.1742232990545207 -0.1742232990545207 -0.1857678476463645 
-0.1857678476463645 -0.1857678476463645 -0.1857678476463645 -0.1961383304819008 -0.1961383304819008 -0.1961383304819008 -0.1961383304819008 -0.2056670860720192 -0.2056670860720192 
-0.2056670860720192 -0.2056670860720192 -0.2147143515932621 -0.2147143515932621 -0.2147143515932621 -0.2147143515932621 -0.2236486429864682 -0.2236486429864682 -0.2236486429864682 
-0.2236486429864682 -0.232818659297559 -0.232818659297559 -0.232818659297559 -0.232818659297559 -0.2425184085547408 -0.2425184085547408 -0.2425184085547408 -0.2425184085547408 
-0.2529519140594014 -0.2529519140594014 -0.2529519140594014 -0.2529519140594014 -0.2642071796244912 -0.2642071796244912 -0.2642071796244912 -0.2642071796244912 -0.2762482402110426 
-0.2762482402110426 -0.2762482402110426 -0.2762482402110426 -0.2889285195402501 -0.2889285195402501 -0.2889285195402501 -0.2889285195402501 -0.3020212818698919 -0.3020212818698919 
-0.3020212818698919 -0.3020212818698919 -0.3152579673459825 -0.3152579673459825 -0.3152579673459825 -0.3152579673459825 -0.3283647912116653 -0.3283647912116653 -0.3283647912116653 
-0.3283647912116653 -0.3410911133369274 -0.3410911133369274 -0.3410911133369274 -0.3410911133369274 -0.3532272033157385 -0.3532272033157385 -0.3532272033157385 -0.3532272033157385 
-0.3646121913797079 -0.3646121913797079 -0.3646121913797079 -0.3646121913797079 -0.3751345843369665 -0.3751345843369665 -0.3751345843369665 -0.3751345843369665 -0.3847280331280458 
-0.3847280331280458 -0.3847280331280458 -0.3847280331280458 -0.3933646360689469 -0.3933646360689469 -0.3933646360689469 -0.3933646360689469 -0.4010474195268428 -0.4010474195268428 
-0.4010474195268428 -0.4010474195268428 -0.4078030250807564 -0.4078030250807564 -0.4078030250807564 -0.4078030250807564 -0.4136751571009386 -0.4136751571009386 -0.4136751571009386 
-0.4136751571009386 -0.4187190218411175 -0.4187190218411175 -0.4187190218411175 -0.4187190218411175 -0.4229967927517586 -0.4229967927517586 -0.4229967927517586 -0.4229967927517586 
-0.426574030816902 -0.426574030816902 -0.426574030816902 -0.426574030816902 -0.4295169410896261 -0.4295169410896261 -0.4295169410896261 -0.4295169410896261 -0.4318903332197548 
-0.4318903332197548 -0.4318903332197548 -0.4318903332197548 -0.4337561586078261 -0.4337561586078261 -0.4337561586078261 -0.4337561586078261 -0.4351725100631752 -0.4351725100631752 
-0.4351725100631752 -0.4351725100631752 -0.436192985905508 -0.436192985905508 -0.436192985905508 -0.436192985905508 -0.4368663363968537 -0.4368663363968537 -0.4368663363968537 
-0.4368663363968537 -0.4372363248594697 -0.4372363248594697 -0.4372363248594697 -0.4372363248594697 -0.4373417483304377 -0.4373417483304377 -0.4373417483304377 -0.4373417483304377 
-0.4372165909765431 -0.4372165909765431 -0.4372165909765431 -0.4372165909765431 -0.4368902944758963 -0.4368902944758963 -0.4368902944758963 -0.4368902944758963 -0.4363879190953719 
-0.4363879190953719 -0.4363879190953719 -0.4363879190953719 -0.4357304283135048 -0.4357304283135048 -0.4357304283135048 -0.4357304283135048 -0.4349350052232117 -0.4349350052232117 
-0.4349350052232117 -0.4349350052232117 -0.4340153597605185 -0.4340153597605185 -0.4340153597605185 -0.4340153597605185 -0.4329820163909167 -0.4329820163909167 -0.4329820163909167 
-0.4329820163909167 -0.431842575374644 -0.431842575374644 -0.431842575374644 -0.431842575374644 -0.4306019429283104 -0.4306019429283104 -0.4306019429283104 -0.4306019429283104 
-0.4292625273128348 -0.4292625273128348 -0.4292625273128348 -0.4292625273128348 -0.4278243994379679 -0.4278243994379679 -0.4278243994379679 -0.4278243994379679 -0.426285417922534 
-0.426285417922534 -0.426285417922534 -0.426285417922534 -0.4246413196911334 -0.4246413196911334 -0.4246413196911334 -0.4246413196911334 -0.4228857781611872 -0.4228857781611872 
-0.4228857781611872 -0.4228857781611872 -0.4210104319326486 -0.4210104319326486 -0.4210104319326486 -0.4210104319326486 -0.4190048876668662 -0.4190048876668662 -0.4190048876668662 
-0.4190048876668662 -0.4168567256325074 -0.4168567256325074 -0.4168567256325074 -0.4168567256325074 -0.4145515131501383 -0.4145515131501383 -0.4145515131501383 -0.4145515131501383 
-0.4120727335390193 -0.4120727335390193 -0.4120727335390193 -0.4120727335390193 -0.4094017501192569 -0.4094017501192569 -0.4094017501192569 -0.4094017501192569 -0.4065177783156502 
-0.4065177783156502 -0.4065177783156502 -0.4065177783156502 -0.4033978731791029 -0.4033978731791029 -0.4033978731791029 -0.4033978731791029 -0.4000169425620468 -0.4000169425620468 
-0.4000169425620468 -0.4000169425620468 -0.3963477973919794 -0.3963477973919794 -0.3963477973919794 -0.3963477973919794 -0.3923612515942268 -0.3923612515942268 -0.3923612515942268 
-0.3923612515942268 -0.3880262860369675 -0.3880262860369675 -0.3880262860369675 -0.3880262860369675 -0.3833102927388748 -0.3833102927388748 -0.3833102927388748 -0.3833102927388748 
-0.378179417552456 -0.378179417552456 -0.378179417552456 -0.378179417552456 -0.3725990215933684 -0.3725990215933684 -0.3725990215933684 -0.3725990215933684 -0.3665342837162698 
-0.3665342837162698 -0.3665342837162698 -0.3665342837162698 -0.3599509681344661 -0.3599509681344661 -0.3599509681344661 -0.3599509681344661 -0.3528163824615576 -0.3528163824615576 
-0.3528163824615576 -0.3528163824615576 -0.3451005514297361 -0.3451005514297361 -0.3451005514297361 -0.3451005514297361 -0.3367776294084937 -0.3367776294084937 -0.3367776294084937 
-0.3367776294084937 -0.3278275692247947 -0.3278275692247947 -0.3278275692247947 -0.3278275692247947 -0.3182380536027813 -0.3182380536027813 -0.3182380536027813 -0.3182380536027813 
-0.3080066757866574 -0.3080066757866574 -0.3080066757866574 -0.3080066757866574 -0.2971433233362865 -0.2971433233362865 -0.2971433233362865 -0.2971433233362865 -0.2856726679469348 
-0.2856726679469348 -0.2856726679469348 -0.2856726679469348 -0.2736365871710335 -0.2736365871710335 -0.2736365871710335 -0.2736365871710335 -0.2610962329179736 -0.2610962329179736 
-0.2610962329179736 -0.2610962329179736 -0.2481333094883025 -0.2481333094883025 -0.2481333094883025 -0.2481333094883025 -0.2348499294065839 -0.2348499294065839 -0.2348499294065839 
-0.2348499294065839 -0.2213661921611862 -0.2213661921611862 -0.2213661921611862 -0.2213661921611862 -0.2078144224133657 -0.2078144224133657 -0.2078144224133657 -0.2078144224133657 
-0.1943289005252445 -0.1943289005252445 -0.1943289005252445 -0.1943289005252445 -0.1810300634750288 -0.1810300634750288 -0.1810300634750288 -0.1810300634750288 -0.1680027100158448 
-0.1680027100158448 -0.1680027100158448 -0.1680027100158448 -0.1552687574231957 -0.1552687574231957 -0.1552687574231957 -0.1552687574231957 -0.1427562356322419 -0.1427562356322419 
-0.1427562356322419 -0.1427562356322419 -0.1302664099395391 -0.1302664099395391 -0.1302664099395391 -0.1302664099395391 -0.1174381146635041 -0.1174381146635041 -0.1174381146635041 
-0.1174381146635041 -0.1036988437526912 -0.1036988437526912 -0.1036988437526912 -0.1036988437526912 -0.08816652343668582 -0.08816652343668582 -0.08816652343668582 -0.08816652343668582 
-0.06938565782536657 -0.06938565782536657 -0.06938565782536657 -0.06938565782536657 -0.04442362023303701 -0.04442362023303701 -0.04442362023303701 -0.04442362023303701 -0.004116730442049672 
-0.004116730442049672 -0.004116730442049672 -0.004116730442049672 0.0408922883069464 0.0408922883069464 0.0408922883069464 0.0408922883069464 0.06771469695522156 0.06771469695522156 
0.06771469695522156 0.06771469695522156 0.08763393486955069 0.08763393486955069 0.08763393486955069 0.08763393486955069 0.1038981347582496 0.1038981347582496 0.1038981347582496 
0.1038981347582496 0.1180531188220784 0.1180531188220784 0.1180531188220784 0.1180531188220784 0.1310304148589855 0.1310304148589855 0.1310304148589855 0.1310304148589855 
0.1434506842630181 0.1434506842630181 0.1434506842630181 0.1434506842630181 0.1557308658832282 0.1557308658832282 0.1557308658832282 0.1557308658832282 0.1681311311490198 
0.1681311311490198 0.1681311311490198 0.1681311311490198 0.1807842805783172 0.1807842805783172 0.1807842805783172 0.1807842805783172 0.1937219804060299 0.1937219804060299 
0.1937219804060299 0.1937219804060299 0.2069011508594091 0.2069011508594091 0.2069011508594091 0.2069011508594091 0.2202294192116965 0.2202294192116965 0.2202294192116965 
0.2202294192116965 0.2335875581100387 0.2335875581100387 0.2335875581100387 0.2335875581100387 0.2468474370164955 0.2468474370164955 0.2468474370164955 0.2468474370164955 
0.2598850380183412 0.2598850380183412 0.2598850380183412 0.2598850380183412 0.2725889100522981 0.2725889100522981 0.2725889100522981 0.2725889100522981 0.2848648805421434 
0.2848648805421434 0.2848648805421434 0.2848648805421434 0.296637966955588 0.296637966955588 0.296637966955588 0.296637966955588 0.3078523578508106 0.3078523578508106 
0.3078523578508106 0.3078523578508106 0.3184701731655709 0.3184701731655709 0.3184701731655709 0.3184701731655709 0.3284695370374736 0.3284695370374736 0.3284695370374736 
0.3284695370374736 0.3378423387766032 0.3378423387766032 0.3378423387766032 0.3378423387766032 0.3465919314559953 0.3465919314559953 0.3465919314559953 0.3465919314559953 
0.3547309235111737 0.3547309235111737 0.3547309235111737 0.3547309235111737 0.3622791521135489 0.3622791521135489 0.3622791521135489 0.3622791521135489 0.3692618818774343 