Title = Quad200
FileType = Solution
Variables = q
Zone T = Quad200
ZoneType = FETriangle
Nodes = 160000
Elements = 80000
DataPacking = Block
StrandID = 13
SolutionTime = 1.2
0.3342748152917495 0.3342748152917495 0.3342748152917495 0.3342748152917495 0.3360566471387377 0.3360566471387377 0.3360566471387377 0.3360566471387377 0.3377875722284125 0.3377875722284125 
0.3377875722284125 0.3377875722284125 0.3394677967365377 0.3394677967365377 0.3394677967365377 0.3394677967365377 0.3410975651382108 0.3410975651382108 0.3410975651382108 
0.3410975651382108 0.3426771571377845 0.3426771571377845 0.3426771571377845 0.3426771571377845 0.3442068842254176 0.3442068842254176 0.3442068842254176 0.3442068842254176 
0.3456870856973938 0.3456870856973938 0.3456870856973938 0.3456870856973938 0.347118123792287 0.347118123792287 0.347118123792287 0.347118123792287 0.3485003772453624 
0.3485003772453624 0.3485003772453624 0.3485003772453624 0.3498342319276254 0.3498342319276254 0.3498342319276254 0.3498342319276254 0.3511200661226382 0.3511200661226382 
0.3511200661226382 0.3511200661226382 0.3523582261182237 0.3523582261182237 0.3523582261182237 0.3523582261182237 0.3535489847490788 0.3535489847490788 0.3535489847490788 
0.3535489847490788 0.3546924707871351 0.3546924707871351 0.3546924707871351 0.3546924707871351 0.3557885499881857 0.3557885499881857 0.3557885499881857 0.3557885499881857 
0.3568366284506437 0.3568366284506437 0.3568366284506437 0.3568366284506437 0.3578353350586472 0.3578353350586472 0.3578353350586472 0.3578353350586472 0.3587820217232593 
0.3587820217232593 0.3587820217232593 0.3587820217232593 0.3596719979614452 0.3596719979614452 0.3596719979614452 0.3596719979614452 0.3604973910520914 0.3604973910520914 
0.3604973910520914 0.3604973910520914 0.3612454965151415 0.3612454965151415 0.3612454965151415 0.3612454965151415 0.3618964592623385 0.3618964592623385 0.3618964592623385 
0.3618964592623385 0.3624201077272319 0.3624201077272319 0.3624201077272319 0.3624201077272319 0.3627717539338732 0.3627717539338732 0.3627717539338732 0.3627717539338732 
0.3628867894781923 0.3628867894781923 0.3628867894781923 0.3628867894781923 0.3626740896937911 0.3626740896937911 0.3626740896937911 0.3626740896937911 0.3620084176319048 
0.3620084176319048 0.3620084176319048 0.3620084176319048 0.3607213558761988 0.3607213558761988 0.3607213558761988 0.3607213558761988 0.3585914271200524 0.3585914271200524 
0.3585914271200524 0.3585914271200524 0.3553338138240689 0.3553338138240689 0.3553338138240689 0.3553338138240689 0.3505904238852824 0.3505904238852824 0.3505904238852824 
0.3505904238852824 0.3439213563552355 0.3439213563552355 0.3439213563552355 0.3439213563552355 0.3347991601529504 0.3347991601529504 0.3347991601529504 0.3347991601529504 
0.3226080331563088 0.3226080331563088 0.3226080331563088 0.3226080331563088 0.3066518346355795 0.3066518346355795 0.3066518346355795 0.3066518346355795 0.2861779336966792 
0.2861779336966792 0.2861779336966792 0.2861779336966792 0.2604293728761501 0.2604293728761501 0.2604293728761501 0.2604293728761501 0.2287491103565499 0.2287491103565499 
0.2287491103565499 0.2287491103565499 0.1907868535410557 0.1907868535410557 0.1907868535410557 0.1907868535410557 0.1469174413410716 0.1469174413410716 0.1469174413410716 
0.1469174413410716 0.09907341901741712 0.09907341901741712 0.09907341901741712 0.09907341901741712 0.05226430003562128 0.05226430003562128 0.05226430003562128 0.05226430003562128 
0.01693793921439764 0.01693793921439764 0.01693793921439764 0.01693793921439764 0.005166658198198238 0.005166658198198238 0.005166658198198238 0.005166658198198238 0.004320067579340435 
0.004320067579340435 0.004320067579340435 0.004320067579340435 0.004309597013894943 0.004309597013894943 0.004309597013894943 0.004309597013894943 0.004321327731034559 0.004321327731034559 
0.004321327731034559 0.004321327731034559 0.004332962188673569 0.004332962188673569 0.004332962188673569 0.004332962188673569 0.004344166557666727 0.004344166557666727 0.004344166557666727 
0.004344166557666727 0.004352235465694207 0.004352235465694207 0.004352235465694207 0.004352235465694207 0.004355959576276774 0.004355959576276774 0.004355959576276774 0.004355959576276774 
0.004357647126182243 0.004357647126182243 0.004357647126182243 0.004357647126182243 0.004358067158558746 0.004358067158558746 0.004358067158558746 0.004358067158558746 0.004357465252170001 
0.004357465252170001 0.004357465252170001 0.004357465252170001 0.00434410492571622 0.00434410492571622 0.00434410492571622 0.00434410492571622 0.003510611675542449 0.003510611675542449 
0.003510611675542449 0.003510611675542449 -0.01349518990641114 -0.01349518990641114 -0.01349518990641114 -0.01349518990641114 -0.05649214998701865 -0.05649214998701865 -0.05649214998701865 
-0.05649214998701865 -0.1063602380689866 -0.1063602380689866 -0.1063602380689866 -0.1063602380689866 -0.1545728504274784 -0.1545728504274784 -0.1545728504274784 -0.1545728504274784 
-0.1975648745940975 -0.1975648745940975 -0.1975648745940975 -0.1975648745940975 -0.2341814501456803 -0.2341814501456803 -0.2341814501456803 -0.2341814501456803 -0.2644175549046812 
-0.2644175549046812 -0.2644175549046812 -0.2644175549046812 -0.2887918646664236 -0.2887918646664236 -0.2887918646664236 -0.2887918646664236 -0.3080348584749468 -0.3080348584749468 
-0.3080348584749468 -0.3080348584749468 -0.322929734678803 -0.322929734678803 -0.322929734678803 -0.322929734678803 -0.3342307664788818 -0.3342307664788818 -0.3342307664788818 
-0.3342307664788818 -0.3426232545766044 -0.3426232545766044 -0.3426232545766044 -0.3426232545766044 -0.3487063625481845 -0.3487063625481845 -0.3487063625481845 -0.3487063625481845 
-0.3529885695635208 -0.3529885695635208 -0.3529885695635208 -0.3529885695635208 -0.3558903155935367 -0.3558903155935367 -0.3558903155935367 -0.3558903155935367 -0.3577509599425399 
-0.3577509599425399 -0.3577509599425399 -0.3577509599425399 -0.358838198393956 -0.358838198393956 -0.358838198393956 -0.358838198393956 -0.359358513758362 -0.359358513758362 
-0.359358513758362 -0.359358513758362 -0.3594676265269716 -0.3594676265269716 -0.3594676265269716 -0.3594676265269716 -0.3592803524613462 -0.3592803524613462 -0.3592803524613462 
-0.3592803524613462 -0.3588794387627472 -0.3588794387627472 -0.3588794387627472 -0.3588794387627472 -0.3583229420874364 -0.3583229420874364 -0.3583229420874364 -0.3583229420874364 
-0.3576506119799585 -0.3576506119799585 -0.3576506119799585 -0.3576506119799585 -0.3568889951326873 -0.3568889951326873 -0.3568889951326873 -0.3568889951326873 -0.3560553516867764 
-0.3560553516867764 -0.3560553516867764 -0.3560553516867764 -0.3551605754275262 -0.3551605754275262 -0.3551605754275262 -0.3551605754275262 -0.3542113072417198 -0.3542113072417198 
-0.3542113072417198 -0.3542113072417198 -0.3532114199854364 -0.3532114199854364 -0.3532114199854364 -0.3532114199854364 -0.3521630315428482 -0.3521630315428482 -0.3521630315428482 
-0.3521630315428482 -0.3510671762999691 -0.3510671762999691 -0.3510671762999691 -0.3510671762999691 -0.3499242378541862 -0.3499242378541862 -0.3499242378541862 -0.3499242378541862 
-0.3487342203767581 -0.3487342203767581 -0.3487342203767581 -0.3487342203767581 -0.3474969145058699 -0.3474969145058699 -0.3474969145058699 -0.3474969145058699 -0.3462119965217345 
-0.3462119965217345 -0.3462119965217345 -0.3462119965217345 -0.3448790866595292 -0.3448790866595292 -0.3448790866595292 -0.3448790866595292 -0.3434977831776093 -0.3434977831776093 
-0.3434977831776093 -0.3434977831776093 -0.3420676824768554 -0.3420676824768554 -0.3420676824768554 -0.3420676824768554 -0.3405883914228896 -0.3405883914228896 -0.3405883914228896 
-0.3405883914228896 -0.3390595354148003 -0.3390595354148003 -0.3390595354148003 -0.3390595354148003 -0.3374807641665651 -0.3374807641665651 -0.3374807641665651 -0.3374807641665651 
-0.3358517562498126 -0.3358517562498126 -0.3358517562498126 -0.3358517562498126 -0.3341722229331071 -0.3341722229331071 -0.3341722229331071 -0.3341722229331071 -0.3324419115764803 
-0.3324419115764803 -0.3324419115764803 -0.3324419115764803 -0.3306606086967966 -0.3306606086967966 -0.3306606086967966 -0.3306606086967966 -0.32882814274843 -0.32882814274843 
-0.32882814274843 -0.32882814274843 -0.3269443866299909 -0.3269443866299909 -0.3269443866299909 -0.3269443866299909 -0.3250092599128282 -0.3250092599128282 -0.3250092599128282 
-0.3250092599128282 -0.3230227307811054 -0.3230227307811054 -0.3230227307811054 -0.3230227307811054 -0.3209848176716385 -0.3209848176716385 -0.3209848176716385 -0.3209848176716385 
-0.3188955906021356 -0.3188955906021356 -0.3188955906021356 -0.3188955906021356 -0.3167551721779093 -0.3167551721779093 -0.3167551721779093 -0.3167551721779093 -0.3145637382690468 
-0.3145637382690468 -0.3145637382690468 -0.3145637382690468 -0.3123215183520496 -0.3123215183520496 -0.3123215183520496 -0.3123215183520496 -0.3100287955118152 -0.3100287955118152 
-0.3100287955118152 -0.3100287955118152 -0.3076859061010377 -0.3076859061010377 -0.3076859061010377 -0.3076859061010377 -0.3052932390539833 -0.3052932390539833 -0.3052932390539833 
-0.3052932390539833 -0.3028512348489817 -0.3028512348489817 -0.3028512348489817 -0.3028512348489817 -0.3003603841071235 -0.3003603841071235 -0.3003603841071235 -0.3003603841071235 
-0.2978212258008604 -0.2978212258008604 -0.2978212258008604 -0.2978212258008604 -0.2952343450217053 -0.2952343450217053 -0.2952343450217053 -0.2952343450217053 -0.2926003702154886 
-0.2926003702154886 -0.2926003702154886 -0.2926003702154886 -0.2899199697292026 -0.2899199697292026 -0.2899199697292026 -0.2899199697292026 -0.287193847413306 -0.287193847413306 
-0.287193847413306 -0.287193847413306 -0.2844227368681795 -0.2844227368681795 -0.2844227368681795 -0.2844227368681795 -0.2816073936787338 -0.2816073936787338 -0.2816073936787338 
-0.2816073936787338 -0.2787485845884302 -0.2787485845884302 -0.2787485845884302 -0.2787485845884302 -0.2758470719300546 -0.2758470719300546 -0.2758470719300546 -0.2758470719300546 
-0.2729035906205515 -0.2729035906205515 -0.2729035906205515 -0.2729035906205515 -0.2699188134583259 -0.2699188134583259 -0.2699188134583259 -0.2699188134583259 -0.2668932980895907 
-0.2668932980895907 -0.2668932980895907 -0.2668932980895907 -0.263827405497263 -0.263827405497263 -0.263827405497263 -0.263827405497263 -0.2607211747260635 -0.2607211747260635 
-0.2607211747260635 -0.2607211747260635 -0.2575741310996386 -0.2575741310996386 -0.2575741310996386 -0.2575741310996386 -0.2543849944655321 -0.2543849944655321 -0.2543849944655321 
-0.2543849944655321 -0.2511512387911677 -0.2511512387911677 -0.2511512387911677 -0.2511512387911677 -0.2478684331806705 -0.2478684331806705 -0.2478684331806705 -0.2478684331806705 
-0.2445292651752275 -0.2445292651752275 -0.2445292651752275 -0.2445292651752275 -0.2411221076610399 -0.2411221076610399 -0.2411221076610399 -0.2411221076610399 -0.2376289377527525 
-0.2376289377527525 -0.2376289377527525 -0.2376289377527525 -0.234022381958604 -0.234022381958604 -0.234022381958604 -0.234022381958604 -0.2302616279334827 -0.2302616279334827 
-0.2302616279334827 -0.2302616279334827 -0.226286619995879 -0.226286619995879 -0.226286619995879 -0.226286619995879 -0.2220101216085453 -0.2220101216085453 -0.2220101216085453 
-0.2220101216085453 -0.2173068958876394 -0.2173068958876394 -0.2173068958876394 -0.2173068958876394 -0.2119990095183223 -0.2119990095183223 -0.2119990095183223 -0.2119990095183223 
-0.2058357327731585 -0.2058357327731585 -0.2058357327731585 -0.2058357327731585 -0.1984654399162257 -0.1984654399162257 -0.1984654399162257 -0.1984654399162257 -0.1893945648990152 
-0.1893945648990152 -0.1893945648990152 -0.1893945648990152 -0.1779232078316809 -0.1779232078316809 -0.1779232078316809 -0.1779232078316809 -0.163033356095289 -0.163033356095289 
-0.163033356095289 -0.163033356095289 -0.1431679789884357 -0.1431679789884357 -0.1431679789884357 -0.1431679789884357 -0.115719800827926 -0.115719800827926 -0.115719800827926 
-0.115719800827926 -0.07560225493656779 -0.07560225493656779 -0.07560225493656779 -0.07560225493656779 -0.01060602418364823 -0.01060602418364823 -0.01060602418364823 -0.01060602418364823 
0.06609562621056062 0.06609562621056062 0.06609562621056062 0.06609562621056062 0.1105328207582922 0.1105328207582922 0.1105328207582922 0.1105328207582922 0.1404052189170013 
0.1404052189170013 0.1404052189170013 0.1404052189170013 0.1619268195034704 0.1619268195034704 0.1619268195034704 0.1619268195034704 0.1780352438662524 0.1780352438662524 
0.1780352438662524 0.1780352438662524 0.1904245796981272 0.1904245796981272 0.1904245796981272 0.1904245796981272 0.2001898331740287 0.2001898331740287 0.2001898331740287 
0.2001898331740287 0.2080831177520164 0.2080831177520164 0.2080831177520164 0.2080831177520164 0.2146370256386129 0.2146370256386129 0.2146370256386129 0.2146370256386129 
0.2202336457012645 0.2202336457012645 0.2202336457012645 0.2202336457012645 0.225147833474655 0.225147833474655 0.225147833474655 0.225147833474655 0.2295766112292814 
0.2295766112292814 0.2295766112292814 0.2295766112292814 0.2336601817467154 0.2336601817467154 0.2336601817467154 0.2336601817467154 0.2374973606574421 0.2374973606574421 
0.2374973606574421 0.2374973606574421 0.2411570240457946 0.2411570240457946 0.2411570240457946 0.2411570240457946 0.2446865922474988 0.2446865922474988 0.2446865922474988 
0.2446865922474988 0.2481183097649833 0.2481183097649833 0.2481183097649833 0.2481183097649833 0.2514737651257648 0.2514737651257648 0.2514737651257648 0.2514737651257648 
0.2547671333308833 0.2547671333308833 0.2547671333308833 0.2547671333308833 0.2580075254151801 0.2580075254151801 0.2580075254151801 0.2580075254151801 0.2612006279703921 
0.2612006279703921 0.2612006279703921 0.2612006279703921 0.2643498349616537 0.2643498349616537 0.2643498349616537 0.2643498349616537 0.2674570211814895 0.2674570211814895 
0.2674570211814895 0.2674570211814895 0.2705230657022638 0.2705230657022638 0.2705230657022638 0.2705230657022638 0.2735482029579219 0.2735482029579219 0.2735482029579219 
0.2735482029579219 0.2765322563366912 0.2765322563366912 0.2765322563366912 0.2765322563366912 0.2794747925760508 0.2794747925760508 0.2794747925760508 0.2794747925760508 
0.2823752233350895 0.2823752233350895 0.2823752233350895 0.2823752233350895 0.2852328718841201 0.2852328718841201 0.2852328718841201 0.2852328718841201 0.2880470169628583 
0.2880470169628583 0.2880470169628583 0.2880470169628583 0.2908169218044824 0.2908169218044824 0.2908169218044824 0.2908169218044824 0.2935418535715949 0.2935418535715949 
0.2935418535715949 0.2935418535715949 0.2962210966096211 0.2962210966096211 0.2962210966096211 0.2962210966096211 0.2988539617081248 0.2988539617081248 0.2988539617081248 
0.2988539617081248 0.301439792766987 0.301439792766987 0.301439792766987 0.301439792766987 0.3039779717502802 0.3039779717502802 0.3039779717502802 0.3039779717502802 
0.3064679224796164 0.3064679224796164 0.3064679224796164 0.3064679224796164 0.308909113607071 0.308909113607071 0.308909113607071 0.308909113607071 0.3113010609734049 
0.3113010609734049 0.3113010609734049 0.3113010609734049 0.313643329473373 0.313643329473373 0.313643329473373 0.313643329473373 0.3159355344981624 0.3159355344981624 
0.3159355344981624 0.3159355344981624 0.3181773429941052 0.3181773429941052 0.3181773429941052 0.3181773429941052 0.3203684741590026 0.3203684741590026 0.3203684741590026 
0.3203684741590026 0.322508699787745 0.322508699787745 0.322508699787745 0.322508699787745 0.3245978442743389 0.3245978442743389 0.3245978442743389 0.3245978442743389 
0.3266357842758468 0.3266357842758468 0.3266357842758468 0.3266357842758468 0.3286224480439004 0.3286224480439004 0.3286224480439004 0.3286224480439004 0.330557814430525 
0.330557814430525 0.330557814430525 0.330557814430525 0.3324419115764803 0.3324419115764803 0.3324419115764803 0.3324419115764803 0.3360566471387374 0.3360566471387374 
0.3360566471387374 0.3360566471387374 0.3378899707103549 0.3378899707103549 0.3378899707103549 0.3378899707103549 0.3396723097349709 0.3396723097349709 0.3396723097349709 
0.3396723097349709 0.3414038229580168 0.3414038229580168 0.3414038229580168 0.3414038229580168 0.3430847093175249 0.3430847093175249 0.3430847093175249 0.3430847093175249 
0.3447152051848874 0.3447152051848874 0.3447152051848874 0.3447152051848874 0.3462955812731668 0.3462955812731668 0.3462955812731668 0.3462955812731668 0.3478261391125601 
0.3478261391125601 0.3478261391125601 0.3478261391125601 0.3493072068696333 0.3493072068696333 0.3493072068696333 0.3493072068696333 0.3507391340504701 0.3507391340504701 
0.3507391340504701 0.3507391340504701 0.3521222841903609 0.3521222841903609 0.3521222841903609 0.3521222841903609 0.3534570238531737 0.3534570238531737 0.3534570238531737 
0.3534570238531737 0.3547437049259372 0.3547437049259372 0.3547437049259372 0.3547437049259372 0.3559826349839016 0.3559826349839016 0.3559826349839016 0.3559826349839016 
0.3571740269865239 0.3571740269865239 0.3571740269865239 0.3571740269865239 0.3583179141920148 0.3583179141920148 0.3583179141920148 0.3583179141920148 0.3594140082968991 
0.3594140082968991 0.3594140082968991 0.3594140082968991 0.3604614677389902 0.3604614677389902 0.3604614677389902 0.3604614677389902 0.3614585282663621 0.3614585282663621 
0.3614585282663621 0.3614585282663621 0.3624019290028895 0.3624019290028895 0.3624019290028895 0.3624019290028895 0.3632860446975836 0.3632860446975836 0.3632860446975836 
0.3632860446975836 0.3641016097893696 0.3641016097893696 0.3641016097893696 0.3641016097893696 0.3648338946682278 0.3648338946682278 0.3648338946682278 0.3648338946682278 
0.3654601724852418 0.3654601724852418 0.3654601724852418 0.3654601724852418 0.3659462994898244 0.3659462994898244 0.3659462994898244 0.3659462994898244 0.3662422339445527 
0.3662422339445527 0.3662422339445527 0.3662422339445527 0.3662763376556344 0.3662763376556344 0.3662763376556344 0.3662763376556344 0.3659486172452053 0.3659486172452053 
0.3659486172452053 0.3659486172452053 0.3651228422092795 0.3651228422092795 0.3651228422092795 0.3651228422092795 0.3636173327192208 0.3636173327192208 0.3636173327192208 
0.3636173327192208 0.3611951313803874 0.3611951313803874 0.3611951313803874 0.3611951313803874 0.3575540019735842 0.3575540019735842 0.3575540019735842 0.3575540019735842 
0.3523170383179796 0.3523170383179796 0.3523170383179796 0.3523170383179796 0.3450249492323044 0.3450249492323044 0.3450249492323044 0.3450249492323044 0.3351316506108482 
0.3351316506108482 0.3351316506108482 0.3351316506108482 0.3220059743681272 0.3220059743681272 0.3220059743681272 0.3220059743681272 0.3049443744953828 0.3049443744953828 
0.3049443744953828 0.3049443744953828 0.2832031130155835 0.2832031130155835 0.2832031130155835 0.2832031130155835 0.2560660900704281 0.2560660900704281 0.2560660900704281 
0.2560660900704281 0.2229831538937101 0.2229831538937101 0.2229831538937101 0.2229831538937101 0.1838531275166346 0.1838531275166346 0.1838531275166346 0.1838531275166346 
0.1395670209420217 0.1395670209420217 0.1395670209420217 0.1395670209420217 0.0928388660937315 0.0928388660937315 0.0928388660937315 0.0928388660937315 0.04912520663719573 
0.04912520663719573 0.04912520663719573 0.04912520663719573 0.01854235799272565 0.01854235799272565 0.01854235799272565 0.01854235799272565 0.009414677734465391 0.009414677734465391 
0.009414677734465391 0.009414677734465391 0.008651476235074848 0.008651476235074848 0.008651476235074848 0.008651476235074848 0.00863133166458558 0.00863133166458558 0.00863133166458558 
0.00863133166458558 0.008644017909666752 0.008644017909666752 0.008644017909666752 0.008644017909666752 0.008656686907966959 0.008656686907966959 0.008656686907966959 0.008656686907966959 
0.008667007603416502 0.008667007603416502 0.008667007603416502 0.008667007603416502 0.008674182413478487 0.008674182413478487 0.008674182413478487 0.008674182413478487 0.008678679828291196 
0.008678679828291196 0.008678679828291196 0.008678679828291196 0.008680961598324901 0.008680961598324901 0.008680961598324901 0.008680961598324901 0.008681298329153523 0.008681298329153523 
0.008681298329153523 0.008681298329153523 0.008679624830703621 0.008679624830703621 0.008679624830703621 0.008679624830703621 0.008658891303032762 0.008658891303032762 0.008658891303032762 
0.008658891303032762 0.007742018690217319 0.007742018690217319 0.007742018690217319 0.007742018690217319 -0.01452432162551622 -0.01452432162551622 -0.01452432162551622 -0.01452432162551622 
-0.06292182713524216 -0.06292182713524216 -0.06292182713524216 -0.06292182713524216 -0.1143519842909871 -0.1143519842909871 -0.1143519842909871 -0.1143519842909871 -0.1622258921571335 
-0.1622258921571335 -0.1622258921571335 -0.1622258921571335 -0.2040610092576568 -0.2040610092576568 -0.2040610092576568 -0.2040610092576568 -0.239242986077866 -0.239242986077866 
-0.239242986077866 -0.239242986077866 -0.2680268821955135 -0.2680268821955135 -0.2680268821955135 -0.2680268821955135 -0.2910538616361618 -0.2910538616361618 -0.2910538616361618 
-0.2910538616361618 -0.3091069341805911 -0.3091069341805911 -0.3091069341805911 -0.3091069341805911 -0.322985013952335 -0.322985013952335 -0.322985013952335 -0.322985013952335 
-0.3334390720528897 -0.3334390720528897 -0.3334390720528897 -0.3334390720528897 -0.3411416624681399 -0.3411416624681399 -0.3411416624681399 -0.3411416624681399 -0.3466745638183567 
-0.3466745638183567 -0.3466745638183567 -0.3466745638183567 -0.3505268008308491 -0.3505268008308491 -0.3505268008308491 -0.3505268008308491 -0.353099089510604 -0.353099089510604 
-0.353099089510604 -0.353099089510604 -0.3547121637506652 -0.3547121637506652 -0.3547121637506652 -0.3547121637506652 -0.3556170220563268 -0.3556170220563268 -0.3556170220563268 
-0.3556170220563268 -0.3560057109026272 -0.3560057109026272 -0.3560057109026272 -0.3560057109026272 -0.3560218191050614 -0.3560218191050614 -0.3560218191050614 -0.3560218191050614 
-0.3557702892070002 -0.3557702892070002 -0.3557702892070002 -0.3557702892070002 -0.3553259726219798 -0.3553259726219798 -0.3553259726219798 -0.3553259726219798 -0.3547408423140552 
-0.3547408423140552 -0.3547408423140552 -0.3547408423140552 -0.3540501128727416 -0.3540501128727416 -0.3540501128727416 -0.3540501128727416 -0.3532770334291506 -0.3532770334291506 
-0.3532770334291506 -0.3532770334291506 -0.3524365281997461 -0.3524365281997461 -0.3524365281997461 -0.3524365281997461 -0.3515378788338733 -0.3515378788338733 -0.3515378788338733 
-0.3515378788338733 -0.3505866417375059 -0.3505866417375059 -0.3505866417375059 -0.3505866417375059 -0.3495859779961722 -0.3495859779961722 -0.3495859779961722 -0.3495859779961722 
-0.3485375488941649 -0.3485375488941649 -0.3485375488941649 -0.3485375488941649 -0.3474421016899382 -0.3474421016899382 -0.3474421016899382 -0.3474421016899382 -0.3462998420724035 
-0.3462998420724035 -0.3462998420724035 -0.3462998420724035 -0.3451106646350344 -0.3451106646350344 -0.3451106646350344 -0.3451106646350344 -0.3438742919798495 -0.3438742919798495 
-0.3438742919798495 -0.3438742919798495 -0.3425903569394183 -0.3425903569394183 -0.3425903569394183 -0.3425903569394183 -0.3412584505247456 -0.3412584505247456 -0.3412584505247456 
-0.3412584505247456 -0.3398781498726911 -0.3398781498726911 -0.3398781498726911 -0.3398781498726911 -0.3384490348778461 -0.3384490348778461 -0.3384490348778461 -0.3384490348778461 
-0.3369706986015639 -0.3369706986015639 -0.3369706986015639 -0.3369706986015639 -0.3354427543346611 -0.3354427543346611 -0.3354427543346611 -0.3354427543346611 -0.3338648408767949 
-0.3338648408767949 -0.3338648408767949 -0.3338648408767949 -0.3322366268470934 -0.3322366268470934 -0.3322366268470934 -0.3322366268470934 -0.330557814430525 -0.330557814430525 
-0.330557814430525 -0.330557814430525 -0.32882814274843 -0.32882814274843 -0.32882814274843 -0.32882814274843 -0.3270473909322892 -0.3270473909322892 -0.3270473909322892 
-0.3270473909322892 -0.3252153809267584 -0.3252153809267584 -0.3252153809267584 -0.3252153809267584 -0.3233319800235701 -0.3233319800235701 -0.3233319800235701 -0.3233319800235701 
-0.3213971031174914 -0.3213971031174914 -0.3213971031174914 -0.3213971031174914 -0.3194107146718521 -0.3194107146718521 -0.3194107146718521 -0.3194107146718521 -0.3173728303806849 
-0.3173728303806849 -0.3173728303806849 -0.3173728303806849 -0.3152835185156619 -0.3152835185156619 -0.3152835185156619 -0.3152835185156619 -0.3131429009480203 -0.3131429009480203 
-0.3131429009480203 -0.3131429009480203 -0.3109511538382104 -0.3109511538382104 -0.3109511538382104 -0.3109511538382104 -0.3087085079887912 -0.3087085079887912 -0.3087085079887912 
-0.3087085079887912 -0.3064152488588093 -0.3064152488588093 -0.3064152488588093 -0.3064152488588093 -0.304071716239861 -0.304071716239861 -0.304071716239861 -0.304071716239861 
-0.3016783035941881 -0.3016783035941881 -0.3016783035941881 -0.3016783035941881 -0.2992354570517236 -0.2992354570517236 -0.2992354570517236 -0.2992354570517236 -0.2967436740537025 
-0.2967436740537025 -0.2967436740537025 -0.2967436740537025 -0.2942035016128356 -0.2942035016128356 -0.2942035016128356 -0.2942035016128356 -0.2916155341327315 -0.2916155341327315 
-0.2916155341327315 -0.2916155341327315 -0.2889804106931838 -0.2889804106931838 -0.2889804106931838 -0.2889804106931838 -0.286298811666464 -0.286298811666464 -0.286298811666464 
-0.286298811666464 -0.2835714544838872 -0.2835714544838872 -0.2835714544838872 -0.2835714544838872 -0.2807990883083215 -0.2807990883083215 -0.2807990883083215 -0.2807990883083215 
-0.2779824872416891 -0.2779824872416891 -0.2779824872416891 -0.2779824872416891 -0.2751224414185806 -0.2751224414185806 -0.2751224414185806 -0.2751224414185806 -0.2722197447878531 
-0.2722197447878531 -0.2722197447878531 -0.2722197447878531 -0.2692751774434922 -0.2692751774434922 -0.2692751774434922 -0.2692751774434922 -0.2662894789302107 -0.2662894789302107 
-0.2662894789302107 -0.2662894789302107 -0.2632633068875179 -0.2632633068875179 -0.2632633068875179 -0.2632633068875179 -0.2601971724521691 -0.2601971724521691 -0.2601971724521691 
-0.2601971724521691 -0.2570913395378789 -0.2570913395378789 -0.2570913395378789 -0.2570913395378789 -0.2539456687198811 -0.2539456687198811 -0.2539456687198811 -0.2539456687198811 
-0.2507593769824606 -0.2507593769824606 -0.2507593769824606 -0.2507593769824606 -0.2475306707919983 -0.2475306707919983 -0.2475306707919983 -0.2475306707919983 -0.2442561902819031 
-0.2442561902819031 -0.2442561902819031 -0.2442561902819031 -0.2409301748342788 -0.2409301748342788 -0.2409301748342788 -0.2409301748342788 -0.2375432225682678 -0.2375432225682678 
-0.2375432225682678 -0.2375432225682678 -0.2340804650592226 -0.2340804650592226 -0.2340804650592226 -0.2340804650592226 -0.2305189170133605 -0.2305189170133605 -0.2305189170133605 
-0.2305189170133605 -0.226823771647612 -0.226823771647612 -0.226823771647612 -0.226823771647612 -0.2229431204020232 -0.2229431204020232 -0.2229431204020232 -0.2229431204020232 
-0.2188005797439982 -0.2188005797439982 -0.2188005797439982 -0.2188005797439982 -0.2142851783818337 -0.2142851783818337 -0.2142851783818337 -0.2142851783818337 -0.2092375395295146 
-0.2092375395295146 -0.2092375395295146 -0.2092375395295146 -0.2034309817019025 -0.2034309817019025 -0.2034309817019025 -0.2034309817019025 -0.1965453055819427 -0.1965453055819427 
-0.1965453055819427 -0.1965453055819427 -0.1881291761634559 -0.1881291761634559 -0.1881291761634559 -0.1881291761634559 -0.1775427671067215 -0.1775427671067215 -0.1775427671067215 
-0.1775427671067215 -0.1638620376550565 -0.1638620376550565 -0.1638620376550565 -0.1638620376550565 -0.145698855189206 -0.145698855189206 -0.145698855189206 -0.145698855189206 
-0.1208106772720612 -0.1208106772720612 -0.1208106772720612 -0.1208106772720612 -0.08509585971296807 -0.08509585971296807 -0.08509585971296807 -0.08509585971296807 -0.02926204535244572 
-0.02926204535244572 -0.02926204535244572 -0.02926204535244572 0.05866155553240204 0.05866155553240204 0.05866155553240204 0.05866155553240204 0.106165580011877 0.106165580011877 
0.106165580011877 0.106165580011877 0.1378159396648683 0.1378159396648683 0.1378159396648683 0.1378159396648683 0.1607361883752254 0.1607361883752254 0.1607361883752254 
0.1607361883752254 0.1779732199379941 0.1779732199379941 0.1779732199379941 0.1779732199379941 0.1912631492128934 0.1912631492128934 0.1912631492128934 0.1912631492128934 
0.2017362117550926 0.2017362117550926 0.2017362117550926 0.2017362117550926 0.2101774723273428 0.2101774723273428 0.2101774723273428 0.2101774723273428 0.2171494806813642 
0.2171494806813642 0.2171494806813642 0.2171494806813642 0.2230606270605297 0.2230606270605297 0.2230606270605297 0.2230606270605297 0.2282081859198776 0.2282081859198776 
0.2282081859198776 0.2282081859198776 0.2328078050191882 0.2328078050191882 0.2328078050191882 0.2328078050191882 0.2370148058552133 0.2370148058552133 0.2370148058552133 
0.2370148058552133 0.2409400129434749 0.2409400129434749 0.2409400129434749 0.2409400129434749 0.2446616482245816 0.2446616482245816 0.2446616482245816 0.2446616482245816 
0.2482342728639143 0.2482342728639143 0.2482342728639143 0.2482342728639143 0.25169547100405 0.25169547100405 0.25169547100405 0.25169547100405 0.2550707972926879 
0.2550707972926879 0.2550707972926879 0.2550707972926879 0.2583773105177899 0.2583773105177899 0.2583773105177899 0.2583773105177899 0.2616261838882585 0.2616261838882585 
0.2616261838882585 0.2616261838882585 0.264824561648785 0.264824561648785 0.264824561648785 0.264824561648785 0.267976857226089 0.267976857226089 0.267976857226089 
0.267976857226089 0.2710856516969937 0.2710856516969937 0.2710856516969937 0.2710856516969937 0.2741523095301959 0.2741523095301959 0.2741523095301959 0.2741523095301959 
0.2771773966792736 0.2771773966792736 0.2771773966792736 0.2771773966792736 0.2801609620958389 0.2801609620958389 0.2801609620958389 0.2801609620958389 0.2831027259101548 