Title = Quad200
FileType = Solution
Variables = q
Zone T = Quad200
ZoneType = FETriangle
Nodes = 160000
Elements = 80000
DataPacking = Block
StrandID = 10
SolutionTime = 0.9
0.4284909784254208 0.4284909784254208 0.4284909784254208 0.4284909784254208 0.4307851245179218 0.4307851245179218 0.4307851245179218 0.4307851245179218 0.4330137885464009 0.4330137885464009 
0.4330137885464009 0.4330137885464009 0.4351770553834815 0.4351770553834815 0.4351770553834815 0.4351770553834815 0.437275037838389 0.437275037838389 0.437275037838389 
0.437275037838389 0.4393078725900009 0.4393078725900009 0.4393078725900009 0.4393078725900009 0.4412757156598004 0.4412757156598004 0.4412757156598004 0.4412757156598004 
0.4431787372239213 0.4431787372239213 0.4431787372239213 0.4431787372239213 0.4450171152943577 0.4450171152943577 0.4450171152943577 0.4450171152943577 0.446791027214733 
0.446791027214733 0.446791027214733 0.446791027214733 0.4485006366991736 0.4485006366991736 0.4485006366991736 0.4485006366991736 0.4501460717194424 0.4501460717194424 
0.4501460717194424 0.4501460717194424 0.4517273839276817 0.4517273839276817 0.4517273839276817 0.4517273839276817 0.4532444718858553 0.4532444718858553 0.4532444718858553 
0.4532444718858553 0.4546969357065578 0.4546969357065578 0.4546969357065578 0.4546969357065578 0.4560838062897328 0.4560838062897328 0.4560838062897328 0.4560838062897328 
0.4574030535365887 0.4574030535365887 0.4574030535365887 0.4574030535365887 0.4586507191793122 0.4586507191793122 0.4586507191793122 0.4586507191793122 0.4598194353784613 
0.4598194353784613 0.4598194353784613 0.4598194353784613 0.4608959751032548 0.4608959751032548 0.4608959751032548 0.4608959751032548 0.461857332773777 0.461857332773777 
0.461857332773777 0.461857332773777 0.4626646551344439 0.4626646551344439 0.4626646551344439 0.4626646551344439 0.4632541460610146 0.4632541460610146 0.4632541460610146 
0.4632541460610146 0.4635238515301928 0.4635238515301928 0.4635238515301928 0.4635238515301928 0.4633152660291231 0.4633152660291231 0.4633152660291231 0.4633152660291231 
0.4623893639200686 0.4623893639200686 0.4623893639200686 0.4623893639200686 0.4603950939222238 0.4603950939222238 0.4603950939222238 0.4603950939222238 0.4568305406976785 
0.4568305406976785 0.4568305406976785 0.4568305406976785 0.4509975309520947 0.4509975309520947 0.4509975309520947 0.4509975309520947 0.4419522269039046 0.4419522269039046 
0.4419522269039046 0.4419522269039046 0.4284579549972778 0.4284579549972778 0.4284579549972778 0.4284579549972778 0.4089533203338501 0.4089533203338501 0.4089533203338501 
0.4089533203338501 0.3815628491788457 0.3815628491788457 0.3815628491788457 0.3815628491788457 0.3442086333841828 0.3442086333841828 0.3442086333841828 0.3442086333841828 
0.2949486809400231 0.2949486809400231 0.2949486809400231 0.2949486809400231 0.2328083030320817 0.2328083030320817 0.2328083030320817 0.2328083030320817 0.1596074933899682 
0.1596074933899682 0.1596074933899682 0.1596074933899682 0.08346431119799365 0.08346431119799365 0.08346431119799365 0.08346431119799365 0.02443978537020324 0.02443978537020324 
0.02443978537020324 0.02443978537020324 0.006231836712432352 0.006231836712432352 0.006231836712432352 0.006231836712432352 0.005260436974058133 0.005260436974058133 0.005260436974058133 
0.005260436974058133 0.005268605486974784 0.005268605486974784 0.005268605486974784 0.005268605486974784 0.005291333604147492 0.005291333604147492 0.005291333604147492 0.005291333604147492 
0.005312766735400164 0.005312766735400164 0.005312766735400164 0.005312766735400164 0.005332661420901573 0.005332661420901573 0.005332661420901573 0.005332661420901573 0.005351045427207683 
0.005351045427207683 0.005351045427207683 0.005351045427207683 0.005367950669178311 0.005367950669178311 0.005367950669178311 0.005367950669178311 0.005383417873169484 0.005383417873169484 
0.005383417873169484 0.005383417873169484 0.005397539253466613 0.005397539253466613 0.005397539253466613 0.005397539253466613 0.005410621745409472 0.005410621745409472 0.005410621745409472 
0.005410621745409472 0.005419774985765848 0.005419774985765848 0.005419774985765848 0.005419774985765848 0.005423826750221084 0.005423826750221084 0.005423826750221084 0.005423826750221084 
0.005425339544033279 0.005425339544033279 0.005425339544033279 0.005425339544033279 0.005425103356676736 0.005425103356676736 0.005425103356676736 0.005425103356676736 0.005423344259785459 
0.005423344259785459 0.005423344259785459 0.005423344259785459 0.005420114555327538 0.005420114555327538 0.005420114555327538 0.005420114555327538 0.005415412908729417 0.005415412908729417 
0.005415412908729417 0.005415412908729417 0.005409219181027335 0.005409219181027335 0.005409219181027335 0.005409219181027335 0.00540150382079959 0.00540150382079959 0.00540150382079959 
0.00540150382079959 0.005392227689598987 0.005392227689598987 0.005392227689598987 0.005392227689598987 0.00537330743418356 0.00537330743418356 0.00537330743418356 0.00537330743418356 
0.003538795423747957 0.003538795423747957 0.003538795423747957 0.003538795423747957 -0.02905707293085268 -0.02905707293085268 -0.02905707293085268 -0.02905707293085268 -0.101731828661996 
-0.101731828661996 -0.101731828661996 -0.101731828661996 -0.1807183960619631 -0.1807183960619631 -0.1807183960619631 -0.1807183960619631 -0.2515306475929384 -0.2515306475929384 
-0.2515306475929384 -0.2515306475929384 -0.3095226472198324 -0.3095226472198324 -0.3095226472198324 -0.3095226472198324 -0.3545274461008642 -0.3545274461008642 -0.3545274461008642 
-0.3545274461008642 -0.3881548325339635 -0.3881548325339635 -0.3881548325339635 -0.3881548325339635 -0.4125165956261838 -0.4125165956261838 -0.4125165956261838 -0.4125165956261838 
-0.4296685917851657 -0.4296685917851657 -0.4296685917851657 -0.4296685917851657 -0.4413943078128645 -0.4413943078128645 -0.4413943078128645 -0.4413943078128645 -0.4491459154090023 
-0.4491459154090023 -0.4491459154090023 -0.4491459154090023 -0.4540556596573488 -0.4540556596573488 -0.4540556596573488 -0.4540556596573488 -0.4569765742889444 -0.4569765742889444 
-0.4569765742889444 -0.4569765742889444 -0.4585323232298586 -0.4585323232298586 -0.4585323232298586 -0.4585323232298586 -0.4591661689332548 -0.4591661689332548 -0.4591661689332548 
-0.4591661689332548 -0.4591845547109275 -0.4591845547109275 -0.4591845547109275 -0.4591845547109275 -0.4587937378721224 -0.4587937378721224 -0.4587937378721224 -0.4587937378721224 
-0.4581286761894537 -0.4581286761894537 -0.4581286761894537 -0.4581286761894537 -0.4572750108137245 -0.4572750108137245 -0.4572750108137245 -0.4572750108137245 -0.456285625140171 
-0.456285625140171 -0.456285625140171 -0.456285625140171 -0.4551922705915191 -0.4551922705915191 -0.4551922705915191 -0.4551922705915191 -0.4540134630990614 -0.4540134630990614 
-0.4540134630990614 -0.4540134630990614 -0.4527596716611548 -0.4527596716611548 -0.4527596716611548 -0.4527596716611548 -0.4514366168969989 -0.4514366168969989 -0.4514366168969989 
-0.4514366168969989 -0.4500472987767389 -0.4500472987767389 -0.4500472987767389 -0.4500472987767389 -0.4485932022275896 -0.4485932022275896 -0.4485932022275896 -0.4485932022275896 
-0.4470749907423289 -0.4470749907423289 -0.4470749907423289 -0.4470749907423289 -0.4454928930360278 -0.4454928930360278 -0.4454928930360278 -0.4454928930360278 -0.443846912510363 
-0.443846912510363 -0.443846912510363 -0.443846912510363 -0.4421369382065589 -0.4421369382065589 -0.4421369382065589 -0.4421369382065589 -0.4403628029848326 -0.4403628029848326 
-0.4403628029848326 -0.4403628029848326 -0.4385243144289618 -0.4385243144289618 -0.4385243144289618 -0.4385243144289618 -0.4366212721102691 -0.4366212721102691 -0.4366212721102691 
-0.4366212721102691 -0.4346534782032235 -0.4346534782032235 -0.4346534782032235 -0.4346534782032235 -0.4326207448914864 -0.4326207448914864 -0.4326207448914864 -0.4326207448914864 
-0.4305229001861426 -0.4305229001861426 -0.4305229001861426 -0.4305229001861426 -0.4283597928894259 -0.4283597928894259 -0.4283597928894259 -0.4283597928894259 -0.4261312970217331 
-0.4261312970217331 -0.4261312970217331 -0.4261312970217331 -0.4238373158435625 -0.4238373158435625 -0.4238373158435625 -0.4238373158435625 -0.4214777855239081 -0.4214777855239081 
-0.4214777855239081 -0.4214777855239081 -0.4190526784733278 -0.4190526784733278 -0.4190526784733278 -0.4190526784733278 -0.4165620063464151 -0.4165620063464151 -0.4165620063464151 
-0.4165620063464151 -0.4140058227130792 -0.4140058227130792 -0.4140058227130792 -0.4140058227130792 -0.4113842253960836 -0.4113842253960836 -0.4113842253960836 -0.4113842253960836 
-0.4086973584718417 -0.4086973584718417 -0.4086973584718417 -0.4086973584718417 -0.4059454139317699 -0.4059454139317699 -0.4059454139317699 -0.4059454139317699 -0.4031286330022827 
-0.4031286330022827 -0.4031286330022827 -0.4031286330022827 -0.4002473071225914 -0.4002473071225914 -0.4002473071225914 -0.4002473071225914 -0.3973017785807228 -0.3973017785807228 
-0.3973017785807228 -0.3973017785807228 -0.3942924408094387 -0.3942924408094387 -0.3942924408094387 -0.3942924408094387 -0.3912197383447523 -0.3912197383447523 -0.3912197383447523 
-0.3912197383447523 -0.3880841664501591 -0.3880841664501591 -0.3880841664501591 -0.3880841664501591 -0.3848862704088885 -0.3848862704088885 -0.3848862704088885 -0.3848862704088885 
-0.3816266444834228 -0.3816266444834228 -0.3816266444834228 -0.3816266444834228 -0.3783059305345656 -0.3783059305345656 -0.3783059305345656 -0.3783059305345656 -0.3749248162784282 
-0.3749248162784282 -0.3749248162784282 -0.3749248162784282 -0.3714840331342938 -0.3714840331342938 -0.3714840331342938 -0.3714840331342938 -0.3679843535708546 -0.3679843535708546 
-0.3679843535708546 -0.3679843535708546 -0.3644265877795705 -0.3644265877795705 -0.3644265877795705 -0.3644265877795705 -0.3608115793690423 -0.3608115793690423 -0.3608115793690423 
-0.3608115793690423 -0.3571401995462993 -0.3571401995462993 -0.3571401995462993 -0.3571401995462993 -0.3534133388690786 -0.3534133388690786 -0.3534133388690786 -0.3534133388690786 
-0.3496318950194974 -0.3496318950194974 -0.3496318950194974 -0.3496318950194974 -0.345796754007071 -0.345796754007071 -0.345796754007071 -0.345796754007071 -0.3419087605094758 
-0.3419087605094758 -0.3419087605094758 -0.3419087605094758 -0.3379686703145073 -0.3379686703145073 -0.3379686703145073 -0.3379686703145073 -0.3339770734372404 -0.3339770734372404 
-0.3339770734372404 -0.3339770734372404 -0.3299342695414716 -0.3299342695414716 -0.3299342695414716 -0.3299342695414716 -0.3258400664302051 -0.3258400664302051 -0.3258400664302051 
-0.3258400664302051 -0.3216934555786635 -0.3216934555786635 -0.3216934555786635 -0.3216934555786635 -0.3174920930604695 -0.3174920930604695 -0.3174920930604695 -0.3174920930604695 
-0.313231475631054 -0.313231475631054 -0.313231475631054 -0.313231475631054 -0.3089036443815261 -0.3089036443815261 -0.3089036443815261 -0.3089036443815261 -0.3044951641586206 
-0.3044951641586206 -0.3044951641586206 -0.3044951641586206 -0.2999840049596508 -0.2999840049596508 -0.2999840049596508 -0.2999840049596508 -0.2953348724132171 -0.2953348724132171 
-0.2953348724132171 -0.2953348724132171 -0.2904922221533873 -0.2904922221533873 -0.2904922221533873 -0.2904922221533873 -0.2853698348712995 -0.2853698348712995 -0.2853698348712995 
-0.2853698348712995 -0.2798356571663093 -0.2798356571663093 -0.2798356571663093 -0.2798356571663093 -0.2736898918435737 -0.2736898918435737 -0.2736898918435737 -0.2736898918435737 
-0.2666335331111944 -0.2666335331111944 -0.2666335331111944 -0.2666335331111944 -0.2582230255749087 -0.2582230255749087 -0.2582230255749087 -0.2582230255749087 -0.2478036632148417 
-0.2478036632148417 -0.2478036632148417 -0.2478036632148417 -0.2344073004095128 -0.2344073004095128 -0.2344073004095128 -0.2344073004095128 -0.2165820062668324 -0.2165820062668324 
-0.2165820062668324 -0.2165820062668324 -0.1920704492775409 -0.1920704492775409 -0.1920704492775409 -0.1920704492775409 -0.1570949820840326 -0.1570949820840326 -0.1570949820840326 
-0.1570949820840326 -0.1047038069689683 -0.1047038069689683 -0.1047038069689683 -0.1047038069689683 -0.02234065976937286 -0.02234065976937286 -0.02234065976937286 -0.02234065976937286 
0.08467361959194711 0.08467361959194711 0.08467361959194711 0.08467361959194711 0.1458750369913882 0.1458750369913882 0.1458750369913882 0.1458750369913882 0.1854568195467671 
0.1854568195467671 0.1854568195467671 0.1854568195467671 0.2131904788920896 0.2131904788920896 0.2131904788920896 0.2131904788920896 0.233352981968934 0.233352981968934 
0.233352981968934 0.233352981968934 0.2484451888232394 0.2484451888232394 0.2484451888232394 0.2484451888232394 0.2600860112419252 0.2600860112419252 0.2600860112419252 
0.2600860112419252 0.2693673354098634 0.2693673354098634 0.2693673354098634 0.2693673354098634 0.2770373820631229 0.2770373820631229 0.2770373820631229 0.2770373820631229 
0.2836104428141218 0.2836104428141218 0.2836104428141218 0.2836104428141218 0.289438585861733 0.289438585861733 0.289438585861733 0.289438585861733 0.2947608872136318 
0.2947608872136318 0.2947608872136318 0.2947608872136318 0.2997380244000003 0.2997380244000003 0.2997380244000003 0.2997380244000003 0.3044767306559113 0.3044767306559113 
0.3044767306559113 0.3044767306559113 0.3090470171558121 0.3090470171558121 0.3090470171558121 0.3090470171558121 0.3134941979612681 0.3134941979612681 0.3134941979612681 
0.3134941979612681 0.317847188823026 0.317847188823026 0.317847188823026 0.317847188823026 0.3221240700536178 0.3221240700536178 0.3221240700536178 0.3221240700536178 
0.3263358884167677 0.3263358884167677 0.3263358884167677 0.3263358884167677 0.3304891792626612 0.3304891792626612 0.3304891792626612 0.3304891792626612 0.3345876119089411 
0.3345876119089411 0.3345876119089411 0.3345876119089411 0.3386330528943128 0.3386330528943128 0.3386330528943128 0.3386330528943128 0.3426262468340129 0.3426262468340129 
0.3426262468340129 0.3426262468340129 0.3465672487648224 0.3465672487648224 0.3465672487648224 0.3465672487648224 0.3504556966723792 0.3504556966723792 0.3504556966723792 
0.3504556966723792 0.3542909822625521 0.3542909822625521 0.3542909822625521 0.3542909822625521 0.3580723575518689 0.3580723575518689 0.3580723575518689 0.3580723575518689 
0.3617990013277392 0.3617990013277392 0.3617990013277392 0.3617990013277392 0.3654700607121021 0.3654700607121021 0.3654700607121021 0.3654700607121021 0.369084677381215 
0.369084677381215 0.369084677381215 0.369084677381215 0.3726420043742478 0.3726420043742478 0.3726420043742478 0.3726420043742478 0.3761412171403036 0.3761412171403036 
0.3761412171403036 0.3761412171403036 0.3795815210475733 0.3795815210475733 0.3795815210475733 0.3795815210475733 0.3829621566959276 0.3829621566959276 0.3829621566959276 
0.3829621566959276 0.3862824038330089 0.3862824038330089 0.3862824038330089 0.3862824038330089 0.389541584344823 0.389541584344823 0.389541584344823 0.389541584344823 
0.3927390645935079 0.3927390645935079 0.3927390645935079 0.3927390645935079 0.3958742572567769 0.3958742572567769 0.3958742572567769 0.3958742572567769 0.3989466227536563 
0.3989466227536563 0.3989466227536563 0.3989466227536563 0.401955670300844 0.401955670300844 0.401955670300844 0.401955670300844 0.4049009586209791 0.4049009586209791 
0.4049009586209791 0.4049009586209791 0.4077820963116123 0.4077820963116123 0.4077820963116123 0.4077820963116123 0.4105987418772801 0.4105987418772801 0.4105987418772801 
0.4105987418772801 0.4133506034241959 0.4133506034241959 0.4133506034241959 0.4133506034241959 0.416037438016248 0.416037438016248 0.416037438016248 0.416037438016248 
0.4186590506912163 0.4186590506912163 0.4186590506912163 0.4186590506912163 0.4212152931368551 0.4212152931368551 0.4212152931368551 0.4212152931368551 0.4237060620273836 
0.4237060620273836 0.4237060620273836 0.4237060620273836 0.4261312970217331 0.4261312970217331 0.4261312970217331 0.4261312970217331 0.4307851245179215 0.4307851245179215 
0.4307851245179215 0.4307851245179215 0.4331449191022316 0.4331449191022316 0.4331449191022316 0.4331449191022316 0.4354391855994919 0.4354391855994919 0.4354391855994919 
0.4354391855994919 0.4376679666506846 0.4376679666506846 0.4376679666506846 0.4376679666506846 0.4398313352229896 0.4398313352229896 0.4398313352229896 0.4398313352229896 
0.4419293908893331 0.4419293908893331 0.4419293908893331 0.4419293908893331 0.443962255694047 0.443962255694047 0.443962255694047 0.443962255694047 0.4459300694779447 
0.4459300694779447 0.4459300694779447 0.4459300694779447 0.4478329843626124 0.4478329843626124 0.4478329843626124 0.4478329843626124 0.4496711577109004 0.4496711577109004 
0.4496711577109004 0.4496711577109004 0.4514447420706376 0.4514447420706376 0.4514447420706376 0.4514447420706376 0.45315386896684 0.45315386896684 0.45315386896684 
0.45315386896684 0.4547986202211177 0.4547986202211177 0.4547986202211177 0.4547986202211177 0.4563789745557323 0.4563789745557323 0.4563789745557323 0.4563789745557323 
0.4578947067090491 0.4578947067090491 0.4578947067090491 0.4578947067090491 0.4593451983728761 0.4593451983728761 0.4593451983728761 0.4593451983728761 0.4607290911280142 
0.4607290911280142 0.4607290911280142 0.4607290911280142 0.4620436663327255 0.4620436663327255 0.4620436663327255 0.4620436663327255 0.4632837700566523 0.4632837700566523 
0.4632837700566523 0.4632837700566523 0.4644400072238084 0.4644400072238084 0.4644400072238084 0.4644400072238084 0.4654958043681083 0.4654958043681083 0.4654958043681083 
0.4654958043681083 0.4664227838587572 0.4664227838587572 0.4664227838587572 0.4664227838587572 0.4671737104160792 0.4671737104160792 0.4671737104160792 0.4671737104160792 
0.4676720661988947 0.4676720661988947 0.4676720661988947 0.4676720661988947 0.4677971258392707 0.4677971258392707 0.4677971258392707 0.4677971258392707 0.4673637420783617 
0.4673637420783617 0.4673637420783617 0.4673637420783617 0.4660960973267919 0.4660960973267919 0.4660960973267919 0.4660960973267919 0.4635936825447328 0.4635936825447328 
0.4635936825447328 0.4635936825447328 0.4592903061109599 0.4592903061109599 0.4592903061109599 0.4592903061109599 0.4524072524463176 0.4524072524463176 0.4524072524463176 
0.4524072524463176 0.4419043029018158 0.4419043029018158 0.4419043029018158 0.4419043029018158 0.426436959938749 0.426436959938749 0.426436959938749 0.426436959938749 
0.4043378774849672 0.4043378774849672 0.4043378774849672 0.4043378774849672 0.3736617467284226 0.3736617467284226 0.3736617467284226 0.3736617467284226 0.3323805698234337 
0.3323805698234337 0.3323805698234337 0.3323805698234337 0.2789184491376325 0.2789184491376325 0.2789184491376325 0.2789184491376325 0.2133542334238683 0.2133542334238683 
0.2133542334238683 0.2133542334238683 0.1395443445082453 0.1395443445082453 0.1395443445082453 0.1395443445082453 0.06809875035252169 0.06809875035252169 0.06809875035252169 
0.06809875035252169 0.02146393463283841 0.02146393463283841 0.02146393463283841 0.02146393463283841 0.01114273411291928 0.01114273411291928 0.01114273411291928 0.01114273411291928 
0.01063704342052972 0.01063704342052972 0.01063704342052972 0.01063704342052972 0.01065635960922186 0.01065635960922186 0.01065635960922186 0.01065635960922186 0.01068849702157009 
0.01068849702157009 0.01068849702157009 0.01068849702157009 0.01071818157712505 0.01071818157712505 0.01071818157712505 0.01071818157712505 0.01074501683359675 0.01074501683359675 
0.01074501683359675 0.01074501683359675 0.01076904688599395 0.01076904688599395 0.01076904688599395 0.01076904688599395 0.01079032390319157 0.01079032390319157 0.01079032390319157 
0.01079032390319157 0.010808906117225 0.010808906117225 0.010808906117225 0.010808906117225 0.01082490649309819 0.01082490649309819 0.01082490649309819 0.01082490649309819 
0.01083746975767443 0.01083746975767443 0.01083746975767443 0.01083746975767443 0.01084591365162389 0.01084591365162389 0.01084591365162389 0.01084591365162389 0.01085079121109177 
0.01085079121109177 0.01085079121109177 0.01085079121109177 0.01085257432383048 0.01085257432383048 0.01085257432383048 0.01085257432383048 0.01085150745962165 0.01085150745962165 
0.01085150745962165 0.01085150745962165 0.0108476849856654 0.0108476849856654 0.0108476849856654 0.0108476849856654 0.01084112356643717 0.01084112356643717 0.01084112356643717 
0.01084112356643717 0.01083180172193865 0.01083180172193865 0.01083180172193865 0.01083180172193865 0.01081967715185657 0.01081967715185657 0.01081967715185657 0.01081967715185657 
0.01080469314269049 0.01080469314269049 0.01080469314269049 0.01080469314269049 0.01078670535264354 0.01078670535264354 0.01078670535264354 0.01078670535264354 0.01073482888345384 
0.01073482888345384 0.01073482888345384 0.01073482888345384 0.006404836924226718 0.006404836924226718 0.006404836924226718 0.006404836924226718 -0.04345173552756926 -0.04345173552756926 
-0.04345173552756926 -0.04345173552756926 -0.1233828512103303 -0.1233828512103303 -0.1233828512103303 -0.1233828512103303 -0.2018118597447323 -0.2018118597447323 -0.2018118597447323 
-0.2018118597447323 -0.2689430014029604 -0.2689430014029604 -0.2689430014029604 -0.2689430014029604 -0.3225168624622018 -0.3225168624622018 -0.3225168624622018 -0.3225168624622018 
-0.3633928773865634 -0.3633928773865634 -0.3633928773865634 -0.3633928773865634 -0.3935391087190957 -0.3935391087190957 -0.3935391087190957 -0.3935391087190957 -0.4151278069169755 
-0.4151278069169755 -0.4151278069169755 -0.4151278069169755 -0.4301541421696139 -0.4301541421696139 -0.4301541421696139 -0.4301541421696139 -0.4402991213300919 -0.4402991213300919 
-0.4402991213300919 -0.4402991213300919 -0.4469056864643487 -0.4469056864643487 -0.4469056864643487 -0.4469056864643487 -0.4510058859760281 -0.4510058859760281 -0.4510058859760281 
-0.4510058859760281 -0.4533677628220292 -0.4533677628220292 -0.4533677628220292 -0.4533677628220292 -0.4545463411611613 -0.4545463411611613 -0.4545463411611613 -0.4545463411611613 
-0.4549315113455923 -0.4549315113455923 -0.4549315113455923 -0.4549315113455923 -0.4547896303890124 -0.4547896303890124 -0.4547896303890124 -0.4547896303890124 -0.4542978323645486 
-0.4542978323645486 -0.4542978323645486 -0.4542978323645486 -0.4535703668621458 -0.4535703668621458 -0.4535703668621458 -0.4535703668621458 -0.4526787760912785 -0.4526787760912785 
-0.4526787760912785 -0.4526787760912785 -0.4516666228468616 -0.4516666228468616 -0.4516666228468616 -0.4516666228468616 -0.4505596756115658 -0.4505596756115658 -0.4505596756115658 
-0.4505596756115658 -0.4493727203565311 -0.4493727203565311 -0.4493727203565311 -0.4493727203565311 -0.4481139677780955 -0.4481139677780955 -0.4481139677780955 -0.4481139677780955 
-0.4467878089887176 -0.4467878089887176 -0.4467878089887176 -0.4467878089887176 -0.4453964809122073 -0.4453964809122073 -0.4453964809122073 -0.4453964809122073 -0.4439410392253597 
-0.4439410392253597 -0.4439410392253597 -0.4439410392253597 -0.442421908296215 -0.442421908296215 -0.442421908296215 -0.442421908296215 -0.4408391825028327 -0.4408391825028327 
-0.4408391825028327 -0.4408391825028327 -0.4391927869391768 -0.4391927869391768 -0.4391927869391768 -0.4391927869391768 -0.4374825615690688 -0.4374825615690688 -0.4374825615690688 
-0.4374825615690688 -0.4357083052351274 -0.4357083052351274 -0.4357083052351274 -0.4357083052351274 -0.4338697993520252 -0.4338697993520252 -0.4338697993520252 -0.4338697993520252 
-0.4319668216352648 -0.4319668216352648 -0.4319668216352648 -0.4319668216352648 -0.4299991550437861 -0.4299991550437861 -0.4299991550437861 -0.4299991550437861 -0.4279665944186276 
-0.4279665944186276 -0.4279665944186276 -0.4279665944186276 -0.4258689519576011 -0.4258689519576011 -0.4258689519576011 -0.4258689519576011 -0.4237060620273835 -0.4237060620273835 
-0.4237060620273835 -0.4237060620273835 -0.4214777855239081 -0.4214777855239081 -0.4214777855239081 -0.4214777855239081 -0.4191840138652358 -0.4191840138652358 -0.4191840138652358 
-0.4191840138652358 -0.4168246726478855 -0.4168246726478855 -0.4168246726478855 -0.4168246726478855 -0.4143997249758807 -0.4143997249758807 -0.4143997249758807 -0.4143997249758807 
-0.4119091744630829 -0.4119091744630829 -0.4119091744630829 -0.4119091744630829 -0.4093530679059778 -0.4093530679059778 -0.4093530679059778 -0.4093530679059778 -0.4067314976229311 
-0.4067314976229311 -0.4067314976229311 -0.4067314976229311 -0.4040446034558443 -0.4040446034558443 -0.4040446034558443 -0.4040446034558443 -0.4012925744306806 -0.4012925744306806 
-0.4012925744306806 -0.4012925744306806 -0.3984756500743121 -0.3984756500743121 -0.3984756500743121 -0.3984756500743121 -0.3955941213864305 -0.3955941213864305 -0.3955941213864305 
-0.3955941213864305 -0.392648331466795 -0.392648331466795 -0.392648331466795 -0.392648331466795 -0.3896386757997095 -0.3896386757997095 -0.3896386757997095 -0.3896386757997095 
-0.3865656021991948 -0.3865656021991948 -0.3865656021991948 -0.3865656021991948 -0.3834296104195679 -0.3834296104195679 -0.3834296104195679 -0.3834296104195679 -0.3802312514366855 
-0.3802312514366855 -0.3802312514366855 -0.3802312514366855 -0.3769711264042793 -0.3769711264042793 -0.3769711264042793 -0.3769711264042793 -0.3736498852864879 -0.3736498852864879 
-0.3736498852864879 -0.3736498852864879 -0.3702682251599982 -0.3702682251599982 -0.3702682251599982 -0.3702682251599982 -0.3668268881639006 -0.3668268881639006 -0.3668268881639006 
-0.3668268881639006 -0.3633266590469318 -0.3633266590469318 -0.3633266590469318 -0.3633266590469318 -0.3597683622108906 -0.3597683622108906 -0.3597683622108906 -0.3597683622108906 
-0.3561528580598476 -0.3561528580598476 -0.3561528580598476 -0.3561528580598476 -0.3524810383108903 -0.3524810383108903 -0.3524810383108903 -0.3524810383108903 -0.3487538196594721 
-0.3487538196594721 -0.3487538196594721 -0.3487538196594721 -0.3449721347483741 -0.3449721347483741 -0.3449721347483741 -0.3449721347483741 -0.3411369186452034 -0.3411369186452034 
-0.3411369186452034 -0.3411369186452034 -0.3372490877975268 -0.3372490877975268 -0.3372490877975268 -0.3372490877975268 -0.333309506400872 -0.333309506400872 -0.333309506400872 
-0.333309506400872 -0.3293189317994898 -0.3293189317994898 -0.3293189317994898 -0.3293189317994898 -0.32527792519055 -0.32527792519055 -0.32527792519055 -0.32527792519055 
-0.3211867053651858 -0.3211867053651858 -0.3211867053651858 -0.3211867053651858 -0.3170449097527333 -0.3170449097527333 -0.3170449097527333 -0.3170449097527333 -0.3128512060530819 
-0.3128512060530819 -0.3128512060530819 -0.3128512060530819 -0.3086026654778364 -0.3086026654778364 -0.3086026654778364 -0.3086026654778364 -0.3042937596678975 -0.3042937596678975 
-0.3042937596678975 -0.3042937596678975 -0.2999147700493305 -0.2999147700493305 -0.2999147700493305 -0.2999147700493305 -0.2954492898788399 -0.2954492898788399 -0.2954492898788399 
-0.2954492898788399 -0.2908703621802922 -0.2908703621802922 -0.2908703621802922 -0.2908703621802922 -0.2861346804023883 -0.2861346804023883 -0.2861346804023883 -0.2861346804023883 
-0.2811737554666781 -0.2811737554666781 -0.2811737554666781 -0.2811737554666781 -0.2758808059059963 -0.2758808059059963 -0.2758808059059963 -0.2758808059059963 -0.2700915551818442 
-0.2700915551818442 -0.2700915551818442 -0.2700915551818442 -0.2635563531264566 -0.2635563531264566 -0.2635563531264566 -0.2635563531264566 -0.2558998557490568 -0.2558998557490568 
-0.2558998557490568 -0.2558998557490568 -0.2465623050022246 -0.2465623050022246 -0.2465623050022246 -0.2465623050022246 -0.2347118299205482 -0.2347118299205482 -0.2347118299205482 
-0.2347118299205482 -0.2191066705415607 -0.2191066705415607 -0.2191066705415607 -0.2191066705415607 -0.1978612329912485 -0.1978612329912485 -0.1978612329912485 -0.1978612329912485 
-0.1680134489360385 -0.1680134489360385 -0.1680134489360385 -0.1680134489360385 -0.1246899862805346 -0.1246899862805346 -0.1246899862805346 -0.1246899862805346 -0.05921852013698781 
-0.05921852013698781 -0.05921852013698781 -0.05921852013698781 0.06915507202766824 0.06915507202766824 0.06915507202766824 0.06915507202766824 0.1330403331975696 0.1330403331975696 
0.1330403331975696 0.1330403331975696 0.1771369316676279 0.1771369316676279 0.1771369316676279 0.1771369316676279 0.208485254785054 0.208485254785054 0.208485254785054 
0.208485254785054 0.2313152338194195 0.2313152338194195 0.2313152338194195 0.2313152338194195 0.2483511315042136 0.2483511315042136 0.2483511315042136 0.2483511315042136 
0.2614006033292446 0.2614006033292446 0.2614006033292446 0.2614006033292446 0.2716954687836408 0.2716954687836408 0.2716954687836408 0.2716954687836408 0.2800879620815585 
0.2800879620815585 0.2800879620815585 0.2800879620815585 0.2871705000357413 0.2871705000357413 0.2871705000357413 0.2871705000357413 0.2933539198502971 0.2933539198502971 
0.2933539198502971 0.2933539198502971 0.2989212107616177 0.2989212107616177 0.2989212107616177 0.2989212107616177 0.3040654751464926 0.3040654751464926 0.3040654751464926 
0.3040654751464926 0.3089170465701418 0.3089170465701418 0.3089170465701418 0.3089170465701418 0.3135628539259084 0.3135628539259084 0.3135628539259084 0.3135628539259084 
0.3180601382472295 0.3180601382472295 0.3180601382472295 0.3180601382472295 0.3224461121573836 0.3224461121573836 0.3224461121573836 0.3224461121573836 0.3267445779194743 
0.3267445779194743 0.3267445779194743 0.3267445779194743 0.3309704462446027 0.3309704462446027 0.3309704462446027 0.3309704462446027 0.3351328345279241 0.3351328345279241 
0.3351328345279241 0.3351328345279241 0.3392371212538227 0.3392371212538227 0.3392371212538227 0.3392371212538227 0.3432862949607572 0.3432862949607572 0.3432862949607572 
0.3432862949607572 0.3472818318360909 0.3472818318360909 0.3472818318360909 0.3472818318360909 0.3512242616789889 0.3512242616789889 0.3512242616789889 0.3512242616789889 