Title = Quad200
FileType = Solution
Variables = q
Zone T = Quad200
ZoneType = FETriangle
Nodes = 160000
Elements = 80000
DataPacking = Block
StrandID = 6
SolutionTime = 0.5
0.6852755930319672 0.6852755930319672 0.6852755930319672 0.6852755930319672 0.6888254137517236 0.6888254137517236 0.6888254137517236 0.6888254137517236 0.6922490597164117 0.6922490597164117 
0.6922490597164117 0.6922490597164117 0.6955449172186411 0.6955449172186411 0.6955449172186411 0.6955449172186411 0.698711229174299 0.698711229174299 0.698711229174299 
0.698711229174299 0.7017460680239838 0.7017460680239838 0.7017460680239838 0.7017460680239838 0.7046473031529943 0.7046473031529943 0.7046473031529943 0.7046473031529943 
0.707412558714387 0.707412558714387 0.707412558714387 0.707412558714387 0.7100391491898919 0.7100391491898919 0.7100391491898919 0.7100391491898919 0.712523952548443 
0.712523952548443 0.712523952548443 0.712523952548443 0.7148630975173994 0.7148630975173994 0.7148630975173994 0.7148630975173994 0.7170511033024818 0.7170511033024818 
0.7170511033024818 0.7170511033024818 0.7190784668991923 0.7190784668991923 0.7190784668991923 0.7190784668991923 0.7209250430894008 0.7209250430894008 0.7209250430894008 
0.7209250430894008 0.7225425118159001 0.7225425118159001 0.7225425118159001 0.7225425118159001 0.7238096178422115 0.7238096178422115 0.7238096178422115 0.7238096178422115 
0.724421499044511 0.724421499044511 0.724421499044511 0.724421499044511 0.7236273582616938 0.7236273582616938 0.7236273582616938 0.7236273582616938 0.7196446021550078 
0.7196446021550078 0.7196446021550078 0.7196446021550078 0.7084315299987614 0.7084315299987614 0.7084315299987614 0.7084315299987614 0.6815000891987841 0.6815000891987841 
0.6815000891987841 0.6815000891987841 0.6233831865933053 0.6233831865933053 0.6233831865933053 0.6233831865933053 0.5129475075530435 0.5129475075530435 0.5129475075530435 
0.5129475075530435 0.3385684468535717 0.3385684468535717 0.3385684468535717 0.3385684468535717 0.1356183982024435 0.1356183982024435 0.1356183982024435 0.1356183982024435 
0.02010406531846972 0.02010406531846972 0.02010406531846972 0.02010406531846972 0.006854650797071594 0.006854650797071594 0.006854650797071594 0.006854650797071594 0.006808950132511248 
0.006808950132511248 0.006808950132511248 0.006808950132511248 0.006907333725566523 0.006907333725566523 0.006907333725566523 0.006907333725566523 0.007000979376187431 0.007000979376187431 
0.007000979376187431 0.007000979376187431 0.00708944888297494 0.00708944888297494 0.00708944888297494 0.00708944888297494 0.007172965251054987 0.007172965251054987 0.007172965251054987 
0.007172965251054987 0.007251735563989408 0.007251735563989408 0.007251735563989408 0.007251735563989408 0.007325949127916701 0.007325949127916701 0.007325949127916701 0.007325949127916701 
0.007395778715112516 0.007395778715112516 0.007395778715112516 0.007395778715112516 0.007461381693220024 0.007461381693220024 0.007461381693220024 0.007461381693220024 0.007522901034271779 
0.007522901034271779 0.007522901034271779 0.007522901034271779 0.007580466213731885 0.007580466213731885 0.007580466213731885 0.007580466213731885 0.007634194008813153 0.007634194008813153 
0.007634194008813153 0.007634194008813153 0.007684189204307376 0.007684189204307376 0.007684189204307376 0.007684189204307376 0.007730545213216707 0.007730545213216707 0.007730545213216707 
0.007730545213216707 0.00777334461864119 0.00777334461864119 0.00777334461864119 0.00777334461864119 0.007812659642857517 0.007812659642857517 0.007812659642857517 0.007812659642857517 
0.007848552550481622 0.007848552550481622 0.007848552550481622 0.007848552550481622 0.007881076002114915 0.007881076002114915 0.007881076002114915 0.007881076002114915 0.007910273436900312 
0.007910273436900312 0.007910273436900312 0.007910273436900312 0.007936179945107369 0.007936179945107369 0.007936179945107369 0.007936179945107369 0.00795882633160685 0.00795882633160685 
0.00795882633160685 0.00795882633160685 0.007978261141513239 0.007978261141513239 0.007978261141513239 0.007978261141513239 0.007994662951815079 0.007994662951815079 0.007994662951815079 
0.007994662951815079 0.008005180084601389 0.008005180084601389 0.008005180084601389 0.008005180084601389 0.008008938487241584 0.008008938487241584 0.008008938487241584 0.008008938487241584 
0.00800859049201097 0.00800859049201097 0.00800859049201097 0.00800859049201097 0.008004781654137786 0.008004781654137786 0.008004781654137786 0.008004781654137786 0.007997635807342338 
0.007997635807342338 0.007997635807342338 0.007997635807342338 0.007987149702799831 0.007987149702799831 0.007987149702799831 0.007987149702799831 0.007973285922041469 0.007973285922041469 
0.007973285922041469 0.007973285922041469 0.007955992286763372 0.007955992286763372 0.007955992286763372 0.007955992286763372 0.007935205328411478 0.007935205328411478 0.007935205328411478 
0.007935205328411478 0.007910850545670589 0.007910850545670589 0.007910850545670589 0.007910850545670589 0.007882841994555346 0.007882841994555346 0.007882841994555346 0.007882841994555346 
0.007851081684942071 0.007851081684942071 0.007851081684942071 0.007851081684942071 0.00781545886470579 0.00781545886470579 0.00781545886470579 0.00781545886470579 0.007775849199514347 
0.007775849199514347 0.007775849199514347 0.007775849199514347 0.007732113841708162 0.007732113841708162 0.007732113841708162 0.007732113841708162 0.007684098377723714 0.007684098377723714 
0.007684098377723714 0.007684098377723714 0.007631631641449798 0.007631631641449798 0.007631631641449798 0.007631631641449798 0.007574524379098264 0.007574524379098264 0.007574524379098264 
0.007574524379098264 0.007512567749274572 0.007512567749274572 0.007512567749274572 0.007512567749274572 0.007445531639898443 0.007445531639898443 0.007445531639898443 0.007445531639898443 
0.00737316278142701 0.00737316278142701 0.00737316278142701 0.00737316278142701 0.007295182633118667 0.007295182633118667 0.007295182633118667 0.007295182633118667 0.00721128491823429 
0.00721128491823429 0.00721128491823429 0.00721128491823429 0.007120264763294892 0.007120264763294892 0.007120264763294892 0.007120264763294892 0.003988037897944756 0.003988037897944756 
0.003988037897944756 0.003988037897944756 -0.07192297862906544 -0.07192297862906544 -0.07192297862906544 -0.07192297862906544 -0.2683122503667538 -0.2683122503667538 -0.2683122503667538 
-0.2683122503667538 -0.4593709722494449 -0.4593709722494449 -0.4593709722494449 -0.4593709722494449 -0.5888718045470267 -0.5888718045470267 -0.5888718045470267 -0.5888718045470267 
-0.6606873775468369 -0.6606873775468369 -0.6606873775468369 -0.6606873775468369 -0.6955123163671539 -0.6955123163671539 -0.6955123163671539 -0.6955123163671539 -0.7107341189178437 
-0.7107341189178437 -0.7107341189178437 -0.7107341189178437 -0.7166247650275769 -0.7166247650275769 -0.7166247650275769 -0.7166247650275769 -0.7183160670950418 -0.7183160670950418 
-0.7183160670950418 -0.7183160670950418 -0.7181483580564654 -0.7181483580564654 -0.7181483580564654 -0.7181483580564654 -0.7171323164260615 -0.7171323164260615 -0.7171323164260615 
-0.7171323164260615 -0.7156871263324796 -0.7156871263324796 -0.7156871263324796 -0.7156871263324796 -0.7139814279459064 -0.7139814279459064 -0.7139814279459064 -0.7139814279459064 
-0.712082443376866 -0.712082443376866 -0.712082443376866 -0.712082443376866 -0.7100176060222602 -0.7100176060222602 -0.7100176060222602 -0.7100176060222602 -0.7077991689392192 
-0.7077991689392192 -0.7077991689392192 -0.7077991689392192 -0.7054336645381849 -0.7054336645381849 -0.7054336645381849 -0.7054336645381849 -0.70292540196442 -0.70292540196442 
-0.70292540196442 -0.70292540196442 -0.7002777209517803 -0.7002777209517803 -0.7002777209517803 -0.7002777209517803 -0.6974934406744905 -0.6974934406744905 -0.6974934406744905 
-0.6974934406744905 -0.6945750322377973 -0.6945750322377973 -0.6945750322377973 -0.6945750322377973 -0.6915246987433008 -0.6915246987433008 -0.6915246987433008 -0.6915246987433008 
-0.6883444235834364 -0.6883444235834364 -0.6883444235834364 -0.6883444235834364 -0.6850360061548937 -0.6850360061548937 -0.6850360061548937 -0.6850360061548937 -0.6816010910679262 
-0.6816010910679262 -0.6816010910679262 -0.6816010910679262 -0.6780411929912851 -0.6780411929912851 -0.6780411929912851 -0.6780411929912851 -0.6743577181059625 -0.6743577181059625 
-0.6743577181059625 -0.6743577181059625 -0.6705519827619733 -0.6705519827619733 -0.6705519827619733 -0.6705519827619733 -0.6666252297724329 -0.6666252297724329 -0.6666252297724329 
-0.6666252297724329 -0.6625786426860343 -0.6625786426860343 -0.6625786426860343 -0.6625786426860343 -0.658413358312816 -0.658413358312816 -0.658413358312816 -0.658413358312816 
-0.6541304777273866 -0.6541304777273866 -0.6541304777273866 -0.6541304777273866 -0.6497310759338721 -0.6497310759338721 -0.6497310759338721 -0.6497310759338721 -0.6452162103451936 
-0.6452162103451936 -0.6452162103451936 -0.6452162103451936 -0.6405869282039929 -0.6405869282039929 -0.6405869282039929 -0.6405869282039929 -0.635844273052281 -0.635844273052281 
-0.635844273052281 -0.635844273052281 -0.6309892903405988 -0.6309892903405988 -0.6309892903405988 -0.6309892903405988 -0.6260230322543776 -0.6260230322543776 -0.6260230322543776 
-0.6260230322543776 -0.620946561824566 -0.620946561824566 -0.620946561824566 -0.620946561824566 -0.615760956380935 -0.615760956380935 -0.615760956380935 -0.615760956380935 
-0.6104673103992103 -0.6104673103992103 -0.6104673103992103 -0.6104673103992103 -0.6050667377868632 -0.6050667377868632 -0.6050667377868632 -0.6050667377868632 -0.5995603736460777 
-0.5995603736460777 -0.5995603736460777 -0.5995603736460777 -0.5939493755454972 -0.5939493755454972 -0.5939493755454972 -0.5939493755454972 -0.5882349243224555 -0.5882349243224555 
-0.5882349243224555 -0.5882349243224555 -0.5824182244219526 -0.5824182244219526 -0.5824182244219526 -0.5824182244219526 -0.5765005037514547 -0.5765005037514547 -0.5765005037514547 
-0.5765005037514547 -0.5704830129811529 -0.5704830129811529 -0.5704830129811529 -0.5704830129811529 -0.5643670241276533 -0.5643670241276533 -0.5643670241276533 -0.5643670241276533 
-0.5581538280883195 -0.5581538280883195 -0.5581538280883195 -0.5581538280883195 -0.5518447304755953 -0.5518447304755953 -0.5518447304755953 -0.5518447304755953 -0.5454410445105417 
-0.5454410445105417 -0.5454410445105417 -0.5454410445105417 -0.5389440786441094 -0.5389440786441094 -0.5389440786441094 -0.5389440786441094 -0.5323551145687782 -0.5323551145687782 
-0.5323551145687782 -0.5323551145687782 -0.525675367615078 -0.525675367615078 -0.525675367615078 -0.525675367615078 -0.5189059148617443 -0.5189059148617443 -0.5189059148617443 
-0.5189059148617443 -0.5120475642572829 -0.5120475642572829 -0.5120475642572829 -0.5120475642572829 -0.5051006164928333 -0.5051006164928333 -0.5051006164928333 -0.5051006164928333 
-0.4980644330135191 -0.4980644330135191 -0.4980644330135191 -0.4980644330135191 -0.4909366608479928 -0.4909366608479928 -0.4909366608479928 -0.4909366608479928 -0.4837118628361871 
-0.4837118628361871 -0.4837118628361871 -0.4837118628361871 -0.4763790424666808 -0.4763790424666808 -0.4763790424666808 -0.4763790424666808 -0.468917296258057 -0.468917296258057 
-0.468917296258057 -0.468917296258057 -0.4612882472485742 -0.4612882472485742 -0.4612882472485742 -0.4612882472485742 -0.4534230108508333 -0.4534230108508333 -0.4534230108508333 
-0.4534230108508333 -0.4452000529809231 -0.4452000529809231 -0.4452000529809231 -0.4452000529809231 -0.4364081974787922 -0.4364081974787922 -0.4364081974787922 -0.4364081974787922 
-0.4266860464499095 -0.4266860464499095 -0.4266860464499095 -0.4266860464499095 -0.4154251207223767 -0.4154251207223767 -0.4154251207223767 -0.4154251207223767 -0.4016192467617435 
-0.4016192467617435 -0.4016192467617435 -0.4016192467617435 -0.3836373322952068 -0.3836373322952068 -0.3836373322952068 -0.3836373322952068 -0.3588900340213833 -0.3588900340213833 
-0.3588900340213833 -0.3588900340213833 -0.3233278046579974 -0.3233278046579974 -0.3233278046579974 -0.3233278046579974 -0.2710200897737455 -0.2710200897737455 -0.2710200897737455 
-0.2710200897737455 -0.1899862788974623 -0.1899862788974623 -0.1899862788974623 -0.1899862788974623 -0.07628311771904751 -0.07628311771904751 -0.07628311771904751 -0.07628311771904751 
0.1109639067327123 0.1109639067327123 0.1109639067327123 0.1109639067327123 0.2130930562832585 0.2130930562832585 0.2130930562832585 0.2130930562832585 0.2886724216119635 
0.2886724216119635 0.2886724216119635 0.2886724216119635 0.3387066943789546 0.3387066943789546 0.3387066943789546 0.3387066943789546 0.3732723770029029 0.3732723770029029 
0.3732723770029029 0.3732723770029029 0.397701118447432 0.397701118447432 0.397701118447432 0.397701118447432 0.4156624586210022 0.4156624586210022 0.4156624586210022 
0.4156624586210022 0.4295563212377588 0.4295563212377588 0.4295563212377588 0.4295563212377588 0.4409223626111392 0.4409223626111392 0.4409223626111392 0.4409223626111392 
0.4507287764892203 0.4507287764892203 0.4507287764892203 0.4507287764892203 0.4595730611246267 0.4595730611246267 0.4595730611246267 0.4595730611246267 0.4678176845795961 
0.4678176845795961 0.4678176845795961 0.4678176845795961 0.4756791447166605 0.4756791447166605 0.4756791447166605 0.4756791447166605 0.4832848979493214 0.4832848979493214 
0.4832848979493214 0.4832848979493214 0.4907089162486052 0.4907089162486052 0.4907089162486052 0.4907089162486052 0.4979934659318473 0.4979934659318473 0.4979934659318473 
0.4979934659318473 0.5051622315357176 0.5051622315357176 0.5051622315357176 0.5051622315357176 0.5122281137990409 0.5122281137990409 0.5122281137990409 0.5122281137990409 
0.5191978250034401 0.5191978250034401 0.5191978250034401 0.5191978250034401 0.5260745523127608 0.5260745523127608 0.5260745523127608 0.5260745523127608 0.532859474508699 
0.532859474508699 0.532859474508699 0.532859474508699 0.5395526450204972 0.5395526450204972 0.5395526450204972 0.5395526450204972 0.5461534929114744 0.5461534929114744 
0.5461534929114744 0.5461534929114744 0.5526611054954553 0.5526611054954553 0.5526611054954553 0.5526611054954553 0.559074387200142 0.559074387200142 0.559074387200142 
0.559074387200142 0.5653921486943395 0.5653921486943395 0.5653921486943395 0.5653921486943395 0.5716131569049024 0.5716131569049024 0.5716131569049024 0.5716131569049024 
0.5777361631706481 0.5777361631706481 0.5777361631706481 0.5777361631706481 0.5837599191819487 0.5837599191819487 0.5837599191819487 0.5837599191819487 0.5896831860674374 
0.5896831860674374 0.5896831860674374 0.5896831860674374 0.5955047395852542 0.5955047395852542 0.5955047395852542 0.5955047395852542 0.6012233730359531 0.6012233730359531 
0.6012233730359531 0.6012233730359531 0.6068378987707298 0.6068378987707298 0.6068378987707298 0.6068378987707298 0.6123471487579772 0.6123471487579772 0.6123471487579772 
0.6123471487579772 0.6177499744449786 0.6177499744449786 0.6177499744449786 0.6177499744449786 0.6230452460270086 0.6230452460270086 0.6230452460270086 0.6230452460270086 
0.6282318511670556 0.6282318511670556 0.6282318511670556 0.6282318511670556 0.6333086931706842 0.6333086931706842 0.6333086931706842 0.6333086931706842 0.638274688597488 
0.638274688597488 0.638274688597488 0.638274688597488 0.6431287642762815 0.6431287642762815 0.6431287642762815 0.6431287642762815 0.6478698536803509 0.6478698536803509 
0.6478698536803509 0.6478698536803509 0.6524968926099103 0.6524968926099103 0.6524968926099103 0.6524968926099103 0.6570088141195851 0.6570088141195851 0.6570088141195851 
0.6570088141195851 0.6614045426182342 0.6614045426182342 0.6614045426182342 0.6614045426182342 0.6656829870560826 0.6656829870560826 0.6656829870560826 0.6656829870560826 
0.6698430330990407 0.6698430330990407 0.6698430330990407 0.6698430330990407 0.6738835341715024 0.6738835341715024 0.6738835341715024 0.6738835341715024 0.6778033012258341 
0.6778033012258341 0.6778033012258341 0.6778033012258341 0.681601091067926 0.681601091067926 0.681601091067926 0.681601091067926 0.6888254137517232 0.6888254137517232 
0.6888254137517232 0.6888254137517232 0.6924904451392886 0.6924904451392886 0.6924904451392886 0.6924904451392886 0.6960296252011531 0.6960296252011531 0.6960296252011531 
0.6960296252011531 0.6994413675007374 0.6994413675007374 0.6994413675007374 0.6994413675007374 0.702723952647503 0.702723952647503 0.702723952647503 0.702723952647503 
0.7058755031001961 0.7058755031001961 0.7058755031001961 0.7058755031001961 0.7088939532215857 0.7088939532215857 0.7088939532215857 0.7088939532215857 0.711777011730887 
0.711777011730887 0.711777011730887 0.711777011730887 0.7145221081165151 0.7145221081165151 0.7145221081165151 0.7145221081165151 0.7171262963849034 0.7171262963849034 
0.7171262963849034 0.7171262963849034 0.7195860333008404 0.7195860333008404 0.7195860333008404 0.7195860333008404 0.721896584183547 0.721896584183547 0.721896584183547 
0.721896584183547 0.724050356220354 0.724050356220354 0.724050356220354 0.724050356220354 0.7260322698163741 0.7260322698163741 0.7260322698163741 0.7260322698163741 
0.7278072898043511 0.7278072898043511 0.7278072898043511 0.7278072898043511 0.7292879836357616 0.7292879836357616 0.7292879836357616 0.7292879836357616 0.7302527309068757 
0.7302527309068757 0.7302527309068757 0.7302527309068757 0.7301455815558537 0.7301455815558537 0.7301455815558537 0.7301455815558537 0.7276140761209298 0.7276140761209298 
0.7276140761209298 0.7276140761209298 0.7194967564801862 0.7194967564801862 0.7194967564801862 0.7194967564801862 0.6988623495827572 0.6988623495827572 0.6988623495827572 
0.6988623495827572 0.6522526692171133 0.6522526692171133 0.6522526692171133 0.6522526692171133 0.5591711819608078 0.5591711819608078 0.5591711819608078 0.5591711819608078 
0.402592560821872 0.402592560821872 0.402592560821872 0.402592560821872 0.2000876339536269 0.2000876339536269 0.2000876339536269 0.2000876339536269 0.04738036472448527 
0.04738036472448527 0.04738036472448527 0.04738036472448527 0.01502013873770514 0.01502013873770514 0.01502013873770514 0.01502013873770514 0.01420567829305378 0.01420567829305378 
0.01420567829305378 0.01420567829305378 0.01437549824917183 0.01437549824917183 0.01437549824917183 0.01437549824917183 0.01454568231480032 0.01454568231480032 0.01454568231480032 
0.01454568231480032 0.01470597707741579 0.01470597707741579 0.01470597707741579 0.01470597707741579 0.01485673012523494 0.01485673012523494 0.01485673012523494 0.01485673012523494 
0.01499836121442883 0.01499836121442883 0.01499836121442883 0.01499836121442883 0.0151312551136627 0.0151312551136627 0.0151312551136627 0.0151312551136627 0.01525576326399248 
0.01525576326399248 0.01525576326399248 0.01525576326399248 0.01537220627644985 0.01537220627644985 0.01537220627644985 0.01537220627644985 0.01548087615950113 0.01548087615950113 
0.01548087615950113 0.01548087615950113 0.01558203829507033 0.01558203829507033 0.01558203829507033 0.01558203829507033 0.01567593318961335 0.01567593318961335 0.01567593318961335 
0.01567593318961335 0.0157627780231063 0.0157627780231063 0.0157627780231063 0.0157627780231063 0.01584276801558515 0.01584276801558515 0.01584276801558515 0.01584276801558515 
0.01591607762809513 0.01591607762809513 0.01591607762809513 0.01591607762809513 0.01598286161252362 0.01598286161252362 0.01598286161252362 0.01598286161252362 0.01604325592291044 
0.01604325592291044 0.01604325592291044 0.01604325592291044 0.01609737850047763 0.01609737850047763 0.01609737850047763 0.01609737850047763 0.01614532995307953 0.01614532995307953 
0.01614532995307953 0.01614532995307953 0.01618719421635789 0.01618719421635789 0.01618719421635789 0.01618719421635789 0.0162230397258208 0.0162230397258208 0.0162230397258208 
0.0162230397258208 0.01625292431987643 0.01625292431987643 0.01625292431987643 0.01625292431987643 0.01627692158598877 0.01627692158598877 0.01627692158598877 0.01627692158598877 
0.01629429271682646 0.01629429271682646 0.01629429271682646 0.01629429271682646 0.01630457612549881 0.01630457612549881 0.01630457612549881 0.01630457612549881 0.01630834634061837 
0.01630834634061837 0.01630834634061837 0.01630834634061837 0.01630595447414428 0.01630595447414428 0.01630595447414428 0.01630595447414428 0.01629752011711765 0.01629752011711765 
0.01629752011711765 0.01629752011711765 0.01628304562129328 0.01628304562129328 0.01628304562129328 0.01628304562129328 0.01626248019542974 0.01626248019542974 0.01626248019542974 
0.01626248019542974 0.01623574446693921 0.01623574446693921 0.01623574446693921 0.01623574446693921 0.01620273794931189 0.01620273794931189 0.01620273794931189 0.01620273794931189 
0.01616334060643369 0.01616334060643369 0.01616334060643369 0.01616334060643369 0.01611741255316802 0.01611741255316802 0.01611741255316802 0.01611741255316802 0.01606479312988918 
0.01606479312988918 0.01606479312988918 0.01606479312988918 0.01600529968461727 0.01600529968461727 0.01600529968461727 0.01600529968461727 0.01593872613532746 0.01593872613532746 
0.01593872613532746 0.01593872613532746 0.01586484131315474 0.01586484131315474 0.01586484131315474 0.01586484131315474 0.0157833870659 0.0157833870659 0.0157833870659 
0.0157833870659 0.01569407609219747 0.01569407609219747 0.01569407609219747 0.01569407609219747 0.01559658946994911 0.01559658946994911 0.01559658946994911 0.01559658946994911 
0.01549057383553258 0.01549057383553258 0.01549057383553258 0.01549057383553258 0.01537563816197531 0.01537563816197531 0.01537563816197531 0.01537563816197531 0.01525135007425363 
0.01525135007425363 0.01525135007425363 0.01525135007425363 0.0151172316276355 0.0151172316276355 0.0151172316276355 0.0151172316276355 0.01497275445880869 0.01497275445880869 
0.01497275445880869 0.01497275445880869 0.01481731745177135 0.01481731745177135 0.01481731745177135 0.01481731745177135 0.0144086631378674 0.0144086631378674 0.0144086631378674 
0.0144086631378674 -0.02232895755335513 -0.02232895755335513 -0.02232895755335513 -0.02232895755335513 -0.1949500487823277 -0.1949500487823277 -0.1949500487823277 -0.1949500487823277 
-0.3982331416500661 -0.3982331416500661 -0.3982331416500661 -0.3982331416500661 -0.5477642299518911 -0.5477642299518911 -0.5477642299518911 -0.5477642299518911 -0.6355934519110227 
-0.6355934519110227 -0.6355934519110227 -0.6355934519110227 -0.6802127268731393 -0.6802127268731393 -0.6802127268731393 -0.6802127268731393 -0.7006003357168221 -0.7006003357168221 
-0.7006003357168221 -0.7006003357168221 -0.7090015903241104 -0.7090015903241104 -0.7090015903241104 -0.7090015903241104 -0.7118756483080348 -0.7118756483080348 -0.7118756483080348 
-0.7118756483080348 -0.7122789991467944 -0.7122789991467944 -0.7122789991467944 -0.7122789991467944 -0.7115673110404497 -0.7115673110404497 -0.7115673110404497 -0.7115673110404497 
-0.7103156713402116 -0.7103156713402116 -0.7103156713402116 -0.7103156713402116 -0.7087589833030844 -0.7087589833030844 -0.7087589833030844 -0.7087589833030844 -0.7069913341955655 
-0.7069913341955655 -0.7069913341955655 -0.7069913341955655 -0.7050506540583896 -0.7050506540583896 -0.7050506540583896 -0.7050506540583896 -0.702953177979275 -0.702953177979275 
-0.702953177979275 -0.702953177979275 -0.7007069427606343 -0.7007069427606343 -0.7007069427606343 -0.7007069427606343 -0.6983168576272362 -0.6983168576272362 -0.6983168576272362 
-0.6983168576272362 -0.6957865395665623 -0.6957865395665623 -0.6957865395665623 -0.6957865395665623 -0.69311896620214 -0.69311896620214 -0.69311896620214 -0.69311896620214 
-0.6903167169729638 -0.6903167169729638 -0.6903167169729638 -0.6903167169729638 -0.6873820762068814 -0.6873820762068814 -0.6873820762068814 -0.6873820762068814 -0.684317089816919 
-0.684317089816919 -0.684317089816919 -0.684317089816919 -0.6811236048783074 -0.6811236048783074 -0.6811236048783074 -0.6811236048783074 -0.6778033012258341 -0.6778033012258341 
-0.6778033012258341 -0.6778033012258341 -0.6743577181059628 -0.6743577181059628 -0.6743577181059628 -0.6743577181059628 -0.670788277126763 -0.670788277126763 -0.670788277126763 
-0.670788277126763 -0.6670963021982361 -0.6670963021982361 -0.6670963021982361 -0.6670963021982361 -0.6632830369472386 -0.6632830369472386 -0.6632830369472386 -0.6632830369472386 
-0.6593496599812564 -0.6593496599812564 -0.6593496599812564 -0.6593496599812564 -0.6552972983006992 -0.6552972983006992 -0.6552972983006992 -0.6552972983006992 -0.6511270391030953 
-0.6511270391030953 -0.6511270391030953 -0.6511270391030953 -0.646839940178542 -0.646839940178542 -0.646839940178542 -0.646839940178542 -0.6424370390608963 -0.6424370390608963 
-0.6424370390608963 -0.6424370390608963 -0.6379193610714105 -0.6379193610714105 -0.6379193610714105 -0.6379193610714105 -0.6332879263692803 -0.6332879263692803 -0.6332879263692803 
-0.6332879263692803 -0.6285437561057621 -0.6285437561057621 -0.6285437561057621 -0.6285437561057621 -0.6236878777641957 -0.6236878777641957 -0.6236878777641957 -0.6236878777641957 
-0.6187213297567929 -0.6187213297567929 -0.6187213297567929 -0.6187213297567929 -0.6136451653398171 -0.6136451653398171 -0.6136451653398171 -0.6136451653398171 -0.6084604559013763 
-0.6084604559013763 -0.6084604559013763 -0.6084604559013763 -0.603168293670066 -0.603168293670066 -0.603168293670066 -0.603168293670066 -0.5977697938877743 -0.5977697938877743 
-0.5977697938877743 -0.5977697938877743 -0.5922660964857388 -0.5922660964857388 -0.5922660964857388 -0.5922660964857388 -0.5866583672989354 -0.5866583672989354 -0.5866583672989354 
-0.5866583672989354 -0.5809477988493661 -0.5809477988493661 -0.5809477988493661 -0.5809477988493661 -0.5751356107226008 -0.5751356107226008 -0.5751356107226008 -0.5751356107226008 
-0.569223049551798 -0.569223049551798 -0.569223049551798 -0.569223049551798 -0.5632113886052452 -0.5632113886052452 -0.5632113886052452 -0.5632113886052452 -0.5571019269393424 
-0.5571019269393424 -0.5571019269393424 -0.5571019269393424 -0.5508959880138777 -0.5508959880138777 -0.5508959880138777 -0.5508959880138777 -0.5445949175418101 -0.5445949175418101 
-0.5445949175418101 -0.5445949175418101 -0.5382000801072846 -0.5382000801072846 -0.5382000801072846 -0.5382000801072846 -0.531712853630809 -0.531712853630809 -0.531712853630809 
-0.531712853630809 -0.525134619896943 -0.525134619896943 -0.525134619896943 -0.525134619896943 -0.5184667477283769 -0.5184667477283769 -0.5184667477283769 -0.5184667477283769 
-0.5117105623247765 -0.5117105623247765 -0.5117105623247765 -0.5117105623247765 -0.5048672885590391 -0.5048672885590391 -0.5048672885590391 -0.5048672885590391 -0.4979379453993776 
-0.4979379453993776 -0.4979379453993776 -0.4979379453993776 -0.4909231490528694 -0.4909231490528694 -0.4909231490528694 -0.4909231490528694 -0.4838227466600808 -0.4838227466600808 
-0.4838227466600808 -0.4838227466600808 -0.4766351506321117 -0.4766351506321117 -0.4766351506321117 -0.4766351506321117 -0.4693561092410109 -0.4693561092410109 -0.4693561092410109 
-0.4693561092410109 -0.4619764379716685 -0.4619764379716685 -0.4619764379716685 -0.4619764379716685 -0.4544779439641533 -0.4544779439641533 -0.4544779439641533 -0.4544779439641533 
-0.4468261374122064 -0.4468261374122064 -0.4468261374122064 -0.4468261374122064 -0.4389573518732313 -0.4389573518732313 -0.4389573518732313 -0.4389573518732313 -0.4307562999923214 
-0.4307562999923214 -0.4307562999923214 -0.4307562999923214 -0.4220176160060317 -0.4220176160060317 -0.4220176160060317 -0.4220176160060317 -0.4123812973448174 -0.4123812973448174 
-0.4123812973448174 -0.4123812973448174 -0.4012269879460911 -0.4012269879460911 -0.4012269879460911 -0.4012269879460911 -0.3875058449174376 -0.3875058449174376 -0.3875058449174376 
-0.3875058449174376 -0.3694815282871675 -0.3694815282871675 -0.3694815282871675 -0.3694815282871675 -0.3443441176568439 -0.3443441176568439 -0.3443441176568439 -0.3443441176568439 
-0.3076161991416122 -0.3076161991416122 -0.3076161991416122 -0.3076161991416122 -0.2527756724940515 -0.2527756724940515 -0.2527756724940515 -0.2527756724940515 -0.1674549953461306 
-0.1674549953461306 -0.1674549953461306 -0.1674549953461306 -0.03552397368739227 -0.03552397368739227 -0.03552397368739227 -0.03552397368739227 0.1382192356295925 0.1382192356295925 
0.1382192356295925 0.1382192356295925 0.234092830775557 0.234092830775557 0.234092830775557 0.234092830775557 0.3053206455254956 0.3053206455254956 0.3053206455254956 
0.3053206455254956 0.3536586225986333 0.3536586225986333 0.3536586225986333 0.3536586225986333 0.387445267743837 0.387445267743837 0.387445267743837 0.387445267743837 
0.4116381974584185 0.4116381974584185 0.4116381974584185 0.4116381974584185 0.4296103903566846 0.4296103903566846 0.4296103903566846 0.4296103903566846 0.4436031856419193 
0.4436031856419193 0.4436031856419193 0.4436031856419193 0.4550781161567308 0.4550781161567308 0.4550781161567308 0.4550781161567308 0.4649705353887781 0.4649705353887781 
0.4649705353887781 0.4649705353887781 0.473868488319504 0.473868488319504 0.473868488319504 0.473868488319504 0.4821357046949931 0.4821357046949931 0.4821357046949931 
0.4821357046949931 0.4899938645903689 0.4899938645903689 0.4899938645903689 0.4899938645903689 0.4975762323182886 0.4975762323182886 0.4975762323182886 0.4975762323182886 
0.5049618523265975 0.5049618523265975 0.5049618523265975 0.5049618523265975 0.5121969421283653 0.5121969421283653 0.5121969421283653 0.5121969421283653 0.5193080658820084 
0.5193080658820084 0.5193080658820084 0.5193080658820084 0.526310136542568 0.526310136542568 0.526310136542568 0.526310136542568 0.5332112379815952 0.5332112379815952 
0.5332112379815952 0.5332112379815952 0.5400154658708938 0.5400154658708938 0.5400154658708938 0.5400154658708938 0.5467245978276236 0.5467245978276236 0.5467245978276236 
0.5467245978276236 0.5533390834058706 0.5533390834058706 0.5533390834058706 0.5533390834058706 0.5598586173779928 0.5598586173779928 0.5598586173779928 0.5598586173779928 