Title = Quad200
FileType = Solution
Variables = q
Zone T = Quad200
ZoneType = FETriangle
Nodes = 160000
Elements = 80000
DataPacking = Block
StrandID = 16
SolutionTime = 1.5
0.5544522074873077 0.5544522074873077 0.5544522074873077 0.5544522074873077 0.5540358826680725 0.5540358826680725 0.5540358826680725 0.5540358826680725 0.5520798309450105 0.5520798309450105 
0.5520798309450105 0.5520798309450105 0.5479427388881795 0.5479427388881795 0.5479427388881795 0.5479427388881795 0.5405848795845449 0.5405848795845449 0.5405848795845449 
0.5405848795845449 0.5284157543576871 0.5284157543576871 0.5284157543576871 0.5284157543576871 0.5093213786069252 0.5093213786069252 0.5093213786069252 0.5093213786069252 
0.4813010988959084 0.4813010988959084 0.4813010988959084 0.4813010988959084 0.4441489789552978 0.4441489789552978 0.4441489789552978 0.4441489789552978 0.4015695923082753 
0.4015695923082753 0.4015695923082753 0.4015695923082753 0.3611215247628656 0.3611215247628656 0.3611215247628656 0.3611215247628656 0.3300176780210039 0.3300176780210039 
0.3300176780210039 0.3300176780210039 0.3105188860724347 0.3105188860724347 0.3105188860724347 0.3105188860724347 0.3002462137909846 0.3002462137909846 0.3002462137909846 
0.3002462137909846 0.2955998050323357 0.2955998050323357 0.2955998050323357 0.2955998050323357 0.2938824004216055 0.2938824004216055 0.2938824004216055 0.2938824004216055 
0.2935542314312033 0.2935542314312033 0.2935542314312033 0.2935542314312033 0.2938431429641287 0.2938431429641287 0.2938431429641287 0.2938431429641287 0.2943856482818131 
0.2943856482818131 0.2943856482818131 0.2943856482818131 0.295014851477794 0.295014851477794 0.295014851477794 0.295014851477794 0.2956529666361714 0.2956529666361714 
0.2956529666361714 0.2956529666361714 0.2962604653390785 0.2962604653390785 0.2962604653390785 0.2962604653390785 0.2968122277883731 0.2968122277883731 0.2968122277883731 
0.2968122277883731 0.2972859250525812 0.2972859250525812 0.2972859250525812 0.2972859250525812 0.297655678442551 0.297655678442551 0.297655678442551 0.297655678442551 
0.2978878074022421 0.2978878074022421 0.2978878074022421 0.2978878074022421 0.2979372345082512 0.2979372345082512 0.2979372345082512 0.2979372345082512 0.2977440462773723 
0.2977440462773723 0.2977440462773723 0.2977440462773723 0.2972300288662385 0.2972300288662385 0.2972300288662385 0.2972300288662385 0.2962948730260005 0.2962948730260005 
0.2962948730260005 0.2962948730260005 0.294812396969561 0.294812396969561 0.294812396969561 0.294812396969561 0.2926268873868536 0.2926268873868536 0.2926268873868536 
0.2926268873868536 0.2895498245161137 0.2895498245161137 0.2895498245161137 0.2895498245161137 0.2853573808459882 0.2853573808459882 0.2853573808459882 0.2853573808459882 
0.2797891790876461 0.2797891790876461 0.2797891790876461 0.2797891790876461 0.2725488476010934 0.2725488476010934 0.2725488476010934 0.2725488476010934 0.2633069962648514 
0.2633069962648514 0.2633069962648514 0.2633069962648514 0.2517075411833762 0.2517075411833762 0.2517075411833762 0.2517075411833762 0.237379055600181 0.237379055600181 
0.237379055600181 0.237379055600181 0.2199542204204192 0.2199542204204192 0.2199542204204192 0.2199542204204192 0.1991028913429404 0.1991028913429404 0.1991028913429404 
0.1991028913429404 0.174589158878438 0.174589158878438 0.174589158878438 0.174589158878438 0.1463739297844756 0.1463739297844756 0.1463739297844756 0.1463739297844756 
0.1148098719691718 0.1148098719691718 0.1148098719691718 0.1148098719691718 0.08102133652588965 0.08102133652588965 0.08102133652588965 0.08102133652588965 0.0476083663010031 
0.0476083663010031 0.0476083663010031 0.0476083663010031 0.01980358497795982 0.01980358497795982 0.01980358497795982 0.01980358497795982 0.005819543243398218 0.005819543243398218 
0.005819543243398218 0.005819543243398218 0.003717930741493948 0.003717930741493948 0.003717930741493948 0.003717930741493948 0.003630697971082705 0.003630697971082705 0.003630697971082705 
0.003630697971082705 0.003633878787724025 0.003633878787724025 0.003633878787724025 0.003633878787724025 0.003635968016785385 0.003635968016785385 0.003635968016785385 0.003635968016785385 
0.003581137732558953 0.003581137732558953 0.003581137732558953 0.003581137732558953 0.001590147866036595 0.001590147866036595 0.001590147866036595 0.001590147866036595 -0.01651006537188111 
-0.01651006537188111 -0.01651006537188111 -0.01651006537188111 -0.04838917004744374 -0.04838917004744374 -0.04838917004744374 -0.04838917004744374 -0.08360630001146659 -0.08360630001146659 
-0.08360630001146659 -0.08360630001146659 -0.1178792020928045 -0.1178792020928045 -0.1178792020928045 -0.1178792020928045 -0.1492698200020214 -0.1492698200020214 -0.1492698200020214 
-0.1492698200020214 -0.1770101550615717 -0.1770101550615717 -0.1770101550615717 -0.1770101550615717 -0.2009253546748453 -0.2009253546748453 -0.2009253546748453 -0.2009253546748453 
-0.2211451096924833 -0.2211451096924833 -0.2211451096924833 -0.2211451096924833 -0.2379536150538089 -0.2379536150538089 -0.2379536150538089 -0.2379536150538089 -0.251707073584824 
-0.251707073584824 -0.251707073584824 -0.251707073584824 -0.2627862818095682 -0.2627862818095682 -0.2627862818095682 -0.2627862818095682 -0.2715686898383539 -0.2715686898383539 
-0.2715686898383539 -0.2715686898383539 -0.2784117534025023 -0.2784117534025023 -0.2784117534025023 -0.2784117534025023 -0.2836431050495189 -0.2836431050495189 -0.2836431050495189 
-0.2836431050495189 -0.2875551612397567 -0.2875551612397567 -0.2875551612397567 -0.2875551612397567 -0.2904028997678025 -0.2904028997678025 -0.2904028997678025 -0.2904028997678025 
-0.2924040007845275 -0.2924040007845275 -0.2924040007845275 -0.2924040007845275 -0.2937406713531511 -0.2937406713531511 -0.2937406713531511 -0.2937406713531511 -0.2945625458856951 
-0.2945625458856951 -0.2945625458856951 -0.2945625458856951 -0.2949901860974279 -0.2949901860974279 -0.2949901860974279 -0.2949901860974279 -0.2951188637647762 -0.2951188637647762 
-0.2951188637647762 -0.2951188637647762 -0.2950224517097885 -0.2950224517097885 -0.2950224517097885 -0.2950224517097885 -0.2947573445573644 -0.2947573445573644 -0.2947573445573644 
-0.2947573445573644 -0.2943661638533944 -0.2943661638533944 -0.2943661638533944 -0.2943661638533944 -0.2938817988665882 -0.2938817988665882 -0.2938817988665882 -0.2938817988665882 
-0.2933322738145864 -0.2933322738145864 -0.2933322738145864 -0.2933322738145864 -0.2927479221721019 -0.2927479221721019 -0.2927479221721019 -0.2927479221721019 -0.2921742979056066 
-0.2921742979056066 -0.2921742979056066 -0.2921742979056066 -0.2916982055911064 -0.2916982055911064 -0.2916982055911064 -0.2916982055911064 -0.2915021825053772 -0.2915021825053772 
-0.2915021825053772 -0.2915021825053772 -0.2919769393321767 -0.2919769393321767 -0.2919769393321767 -0.2919769393321767 -0.2939354074412283 -0.2939354074412283 -0.2939354074412283 
-0.2939354074412283 -0.2989549942921026 -0.2989549942921026 -0.2989549942921026 -0.2989549942921026 -0.3096932597204785 -0.3096932597204785 -0.3096932597204785 -0.3096932597204785 
-0.3294909525920195 -0.3294909525920195 -0.3294909525920195 -0.3294909525920195 -0.3602443147211263 -0.3602443147211263 -0.3602443147211263 -0.3602443147211263 -0.3994580858273082 
-0.3994580858273082 -0.3994580858273082 -0.3994580858273082 -0.4404154880332001 -0.4404154880332001 -0.4404154880332001 -0.4404154880332001 -0.4763769406886647 -0.4763769406886647 
-0.4763769406886647 -0.4763769406886647 -0.5040414765015544 -0.5040414765015544 -0.5040414765015544 -0.5040414765015544 -0.5234958960365513 -0.5234958960365513 -0.5234958960365513 
-0.5234958960365513 -0.5364244955241664 -0.5364244955241664 -0.5364244955241664 -0.5364244955241664 -0.544681053592211 -0.544681053592211 -0.544681053592211 -0.544681053592211 
-0.549715260736056 -0.549715260736056 -0.549715260736056 -0.549715260736056 -0.5525152260902988 -0.5525152260902988 -0.5525152260902988 -0.5525152260902988 -0.5537180294501667 
-0.5537180294501667 -0.5537180294501667 -0.5537180294501667 -0.5537279481583015 -0.5537279481583015 -0.5537279481583015 -0.5537279481583015 -0.5528020237144537 -0.5528020237144537 
-0.5528020237144537 -0.5528020237144537 -0.5511035429811091 -0.5511035429811091 -0.5511035429811091 -0.5511035429811091 -0.548733031793738 -0.548733031793738 -0.548733031793738 
-0.548733031793738 -0.5457479181880764 -0.5457479181880764 -0.5457479181880764 -0.5457479181880764 -0.5421748853085984 -0.5421748853085984 -0.5421748853085984 -0.5421748853085984 
-0.5380177636487751 -0.5380177636487751 -0.5380177636487751 -0.5380177636487751 -0.5332628724431938 -0.5332628724431938 -0.5332628724431938 -0.5332628724431938 -0.5278828928620435 
-0.5278828928620435 -0.5278828928620435 -0.5278828928620435 -0.521839922377738 -0.521839922377738 -0.521839922377738 -0.521839922377738 -0.5150881296350381 -0.5150881296350381 
-0.5150881296350381 -0.5150881296350381 -0.5075763075886021 -0.5075763075886021 -0.5075763075886021 -0.5075763075886021 -0.4992505548409141 -0.4992505548409141 -0.4992505548409141 
-0.4992505548409141 -0.4900572745440779 -0.4900572745440779 -0.4900572745440779 -0.4900572745440779 -0.4799466507966128 -0.4799466507966128 -0.4799466507966128 -0.4799466507966128 
-0.4688767325940473 -0.4688767325940473 -0.4688767325940473 -0.4688767325940473 -0.456818214379608 -0.456818214379608 -0.456818214379608 -0.456818214379608 -0.4437599391903174 
-0.4437599391903174 -0.4437599391903174 -0.4437599391903174 -0.4297150533210382 -0.4297150533210382 -0.4297150533210382 -0.4297150533210382 -0.414727597417645 -0.414727597417645 
-0.414727597417645 -0.414727597417645 -0.3988791161242421 -0.3988791161242421 -0.3988791161242421 -0.3988791161242421 -0.3822946010010162 -0.3822946010010162 -0.3822946010010162 
-0.3822946010010162 -0.3651467589330908 -0.3651467589330908 -0.3651467589330908 -0.3651467589330908 -0.3476572611632421 -0.3476572611632421 -0.3476572611632421 -0.3476572611632421 
-0.330093369522081 -0.330093369522081 -0.330093369522081 -0.330093369522081 -0.3127583233581658 -0.3127583233581658 -0.3127583233581658 -0.3127583233581658 -0.2959743438588187 
-0.2959743438588187 -0.2959743438588187 -0.2959743438588187 -0.2800583231759607 -0.2800583231759607 -0.2800583231759607 -0.2800583231759607 -0.265292298469387 -0.265292298469387 
-0.265292298469387 -0.265292298469387 -0.2518932985579261 -0.2518932985579261 -0.2518932985579261 -0.2518932985579261 -0.2399890684131462 -0.2399890684131462 -0.2399890684131462 
-0.2399890684131462 -0.2296061044267044 -0.2296061044267044 -0.2296061044267044 -0.2296061044267044 -0.220673520828189 -0.220673520828189 -0.220673520828189 -0.220673520828189 
-0.2130413241134433 -0.2130413241134433 -0.2130413241134433 -0.2130413241134433 -0.2065071075667778 -0.2065071075667778 -0.2065071075667778 -0.2065071075667778 -0.2008433451310652 
-0.2008433451310652 -0.2008433451310652 -0.2008433451310652 -0.1958188705415152 -0.1958188705415152 -0.1958188705415152 -0.1958188705415152 -0.1912113276883586 -0.1912113276883586 
-0.1912113276883586 -0.1912113276883586 -0.1868104138929869 -0.1868104138929869 -0.1868104138929869 -0.1868104138929869 -0.1824134787686075 -0.1824134787686075 -0.1824134787686075 
-0.1824134787686075 -0.1778154155710841 -0.1778154155710841 -0.1778154155710841 -0.1778154155710841 -0.1727942448708482 -0.1727942448708482 -0.1727942448708482 -0.1727942448708482 
-0.167092759964187 -0.167092759964187 -0.167092759964187 -0.167092759964187 -0.1603951599975367 -0.1603951599975367 -0.1603951599975367 -0.1603951599975367 -0.1522953062489357 
-0.1522953062489357 -0.1522953062489357 -0.1522953062489357 -0.1422487067467911 -0.1422487067467911 -0.1422487067467911 -0.1422487067467911 -0.1294895646568888 -0.1294895646568888 
-0.1294895646568888 -0.1294895646568888 -0.1128641803968608 -0.1128641803968608 -0.1128641803968608 -0.1128641803968608 -0.09043134386893889 -0.09043134386893889 -0.09043134386893889 
-0.09043134386893889 -0.05825064311080536 -0.05825064311080536 -0.05825064311080536 -0.05825064311080536 -0.005243415694964966 -0.005243415694964966 -0.005243415694964966 -0.005243415694964966 
0.05360038339699166 0.05360038339699166 0.05360038339699166 0.05360038339699166 0.08799146305048257 0.08799146305048257 0.08799146305048257 0.08799146305048257 0.1117489651761973 
0.1117489651761973 0.1117489651761973 0.1117489651761973 0.1293205114131883 0.1293205114131883 0.1293205114131883 0.1293205114131883 0.1427985137415539 0.1427985137415539 
0.1427985137415539 0.1427985137415539 0.153401822843216 0.153401822843216 0.153401822843216 0.153401822843216 0.1619321050630241 0.1619321050630241 0.1619321050630241 
0.1619321050630241 0.1689565250910054 0.1689565250910054 0.1689565250910054 0.1689565250910054 0.1748961374308643 0.1748961374308643 0.1748961374308643 0.1748961374308643 
0.1800758332100663 0.1800758332100663 0.1800758332100663 0.1800758332100663 0.1847566455651986 0.1847566455651986 0.1847566455651986 0.1847566455651986 0.1891591320777562 
0.1891591320777562 0.1891591320777562 0.1891591320777562 0.1934816678615752 0.1934816678615752 0.1934816678615752 0.1934816678615752 0.1979151469431637 0.1979151469431637 
0.1979151469431637 0.1979151469431637 0.2026542048523812 0.2026542048523812 0.2026542048523812 0.2026542048523812 0.2079040752396807 0.2079040752396807 0.2079040752396807 
0.2079040752396807 0.2138814945429992 0.2138814945429992 0.2138814945429992 0.2138814945429992 0.2208079163679778 0.2208079163679778 0.2208079163679778 0.2208079163679778 
0.2288941206620989 0.2288941206620989 0.2288941206620989 0.2288941206620989 0.2383173763712372 0.2383173763712372 0.2383173763712372 0.2383173763712372 0.2491952474182402 
0.2491952474182402 0.2491952474182402 0.2491952474182402 0.2615625949198084 0.2615625949198084 0.2615625949198084 0.2615625949198084 0.2753586287860323 0.2753586287860323 
0.2753586287860323 0.2753586287860323 0.2904282462861992 0.2904282462861992 0.2904282462861992 0.2904282462861992 0.3065374373637512 0.3065374373637512 0.3065374373637512 
0.3065374373637512 0.3233984885949916 0.3233984885949916 0.3233984885949916 0.3233984885949916 0.3406988461820468 0.3406988461820468 0.3406988461820468 0.3406988461820468 
0.3581280364412616 0.3581280364412616 0.3581280364412616 0.3581280364412616 0.3753990138849753 0.3753990138849753 0.3753990138849753 0.3753990138849753 0.3922625098547637 
0.3922625098547637 0.3922625098547637 0.3922625098547637 0.4085146330333863 0.4085146330333863 0.4085146330333863 0.4085146330333863 0.4239989148976001 0.4239989148976001 
0.4239989148976001 0.4239989148976001 0.4386043183883683 0.4386043183883683 0.4386043183883683 0.4386043183883683 0.4522606619942299 0.4522606619942299 0.4522606619942299 
0.4522606619942299 0.4649326551700536 0.4649326551700536 0.4649326551700536 0.4649326551700536 0.4766134301278443 0.4766134301278443 0.4766134301278443 0.4766134301278443 
0.4873181638381757 0.4873181638381757 0.4873181638381757 0.4873181638381757 0.4970781440104514 0.4970781440104514 0.4970781440104514 0.4970781440104514 0.5059354501720952 
0.5059354501720952 0.5059354501720952 0.5059354501720952 0.5139382894501459 0.5139382894501459 0.5139382894501459 0.5139382894501459 0.5211369348259351 0.5211369348259351 
0.5211369348259351 0.5211369348259351 0.5275801484465773 0.5275801484465773 0.5275801484465773 0.5275801484465773 0.5333119204515615 0.5333119204515615 0.5333119204515615 
0.5333119204515615 0.53836829985402 0.53836829985402 0.53836829985402 0.53836829985402 0.5427740188130667 0.5427740188130667 0.5427740188130667 0.5427740188130667 
0.5465384838676606 0.5465384838676606 0.5465384838676606 0.5465384838676606 0.5496504678073305 0.5496504678073305 0.5496504678073305 0.5496504678073305 0.5520703734747181 
0.5520703734747181 0.5520703734747181 0.5520703734747181 0.5537180294501665 0.5537180294501665 0.5537180294501665 0.5537180294501665 0.5540358826680722 0.5540358826680722 
0.5540358826680722 0.5540358826680722 0.5544132394534527 0.5544132394534527 0.5544132394534527 0.5544132394534527 0.5532585803472279 0.5532585803472279 0.5532585803472279 
0.5532585803472279 0.5499035228218057 0.5499035228218057 0.5499035228218057 0.5499035228218057 0.5432201426485213 0.5432201426485213 0.5432201426485213 0.5432201426485213 
0.531427646625159 0.531427646625159 0.531427646625159 0.531427646625159 0.5121169717995988 0.5121169717995988 0.5121169717995988 0.5121169717995988 0.4830359989797445 
0.4830359989797445 0.4830359989797445 0.4830359989797445 0.4441384855526847 0.4441384855526847 0.4441384855526847 0.4441384855526847 0.399959760112888 0.399959760112888 
0.399959760112888 0.399959760112888 0.3590302384541163 0.3590302384541163 0.3590302384541163 0.3590302384541163 0.3286604903149391 0.3286604903149391 0.3286604903149391 
0.3286604903149391 0.3103510576358518 0.3103510576358518 0.3103510576358518 0.3103510576358518 0.3010664976799661 0.3010664976799661 0.3010664976799661 0.3010664976799661 
0.2970441883822939 0.2970441883822939 0.2970441883822939 0.2970441883822939 0.2956759370788191 0.2956759370788191 0.2956759370788191 0.2956759370788191 0.2955382726480371 
0.2955382726480371 0.2955382726480371 0.2955382726480371 0.2959371027421369 0.2959371027421369 0.2959371027421369 0.2959371027421369 0.2965518990507963 0.2965518990507963 
0.2965518990507963 0.2965518990507963 0.2972375090171505 0.2972375090171505 0.2972375090171505 0.2972375090171505 0.2979272677737398 0.2979272677737398 0.2979272677737398 
0.2979272677737398 0.2985880663062149 0.2985880663062149 0.2985880663062149 0.2985880663062149 0.2991995796516026 0.2991995796516026 0.2991995796516026 0.2991995796516026 
0.2997442698656041 0.2997442698656041 0.2997442698656041 0.2997442698656041 0.3002019827401076 0.3002019827401076 0.3002019827401076 0.3002019827401076 0.3005463323541055 
0.3005463323541055 0.3005463323541055 0.3005463323541055 0.3007416138784531 0.3007416138784531 0.3007416138784531 0.3007416138784531 0.3007396929713481 0.3007396929713481 
0.3007396929713481 0.3007396929713481 0.3004768366427786 0.3004768366427786 0.3004768366427786 0.3004768366427786 0.2998702882538167 0.2998702882538167 0.2998702882538167 
0.2998702882538167 0.2988145527390282 0.2988145527390282 0.2988145527390282 0.2988145527390282 0.2971777150987187 0.2971777150987187 0.2971777150987187 0.2971777150987187 
0.2947979545425893 0.2947979545425893 0.2947979545425893 0.2947979545425893 0.2914805742817843 0.2914805742817843 0.2914805742817843 0.2914805742817843 0.2869959420493493 
0.2869959420493493 0.2869959420493493 0.2869959420493493 0.2810787789536463 0.2810787789536463 0.2810787789536463 0.2810787789536463 0.2734292950234728 0.2734292950234728 
0.2734292950234728 0.2734292950234728 0.2637168764694351 0.2637168764694351 0.2637168764694351 0.2637168764694351 0.2515875352784921 0.2515875352784921 0.2515875352784921 
0.2515875352784921 0.2366772728185466 0.2366772728185466 0.2366772728185466 0.2366772728185466 0.2186351454235276 0.2186351454235276 0.2186351454235276 0.2186351454235276 
0.1971630790354833 0.1971630790354833 0.1971630790354833 0.1971630790354833 0.1720870778274788 0.1720870778274788 0.1720870778274788 0.1720870778274788 0.1434913907338428 
0.1434913907338428 0.1434913907338428 0.1434913907338428 0.1119708101331505 0.1119708101331505 0.1119708101331505 0.1119708101331505 0.07903345679484973 0.07903345679484973 
0.07903345679484973 0.07903345679484973 0.04751678259811477 0.04751678259811477 0.04751678259811477 0.04751678259811477 0.02202788363549337 0.02202788363549337 0.02202788363549337 
0.02202788363549337 0.009533490215223121 0.009533490215223121 0.009533490215223121 0.009533490215223121 0.007377984690130202 0.007377984690130202 0.007377984690130202 0.007377984690130202 
0.007231777763124983 0.007231777763124983 0.007231777763124983 0.007231777763124983 0.0072286062522017 0.0072286062522017 0.0072286062522017 0.0072286062522017 0.007230487728151075 
0.007230487728151075 0.007230487728151075 0.007230487728151075 0.007175809064708761 0.007175809064708761 0.007175809064708761 0.007175809064708761 0.005545838462607645 0.005545838462607645 
0.005545838462607645 0.005545838462607645 -0.01538881461856829 -0.01538881461856829 -0.01538881461856829 -0.01538881461856829 -0.05023340102681888 -0.05023340102681888 -0.05023340102681888 
-0.05023340102681888 -0.08660160696719489 -0.08660160696719489 -0.08660160696719489 -0.08660160696719489 -0.1210435665842284 -0.1210435665842284 -0.1210435665842284 -0.1210435665842284 
-0.1521234575994708 -0.1521234575994708 -0.1521234575994708 -0.1521234575994708 -0.1793310317057946 -0.1793310317057946 -0.1793310317057946 -0.1793310317057946 -0.2026249489061983 
-0.2026249489061983 -0.2026249489061983 -0.2026249489061983 -0.2222071420867471 -0.2222071420867471 -0.2222071420867471 -0.2222071420867471 -0.2384018912646745 -0.2384018912646745 
-0.2384018912646745 -0.2384018912646745 -0.2515874837818244 -0.2515874837818244 -0.2515874837818244 -0.2515874837818244 -0.2621562618566771 -0.2621562618566771 -0.2621562618566771 
-0.2621562618566771 -0.2704906934783311 -0.2704906934783311 -0.2704906934783311 -0.2704906934783311 -0.2769488505151697 -0.2769488505151697 -0.2769488505151697 -0.2769488505151697 
-0.2818558382845737 -0.2818558382845737 -0.2818558382845737 -0.2818558382845737 -0.2854993997167455 -0.2854993997167455 -0.2854993997167455 -0.2854993997167455 -0.2881286136436593 
-0.2881286136436593 -0.2881286136436593 -0.2881286136436593 -0.2899548024995001 -0.2899548024995001 -0.2899548024995001 -0.2899548024995001 -0.2911538711382683 -0.2911538711382683 
-0.2911538711382683 -0.2911538711382683 -0.291869485905913 -0.291869485905913 -0.291869485905913 -0.291869485905913 -0.2922167258613524 -0.2922167258613524 -0.2922167258613524 
-0.2922167258613524 -0.2922860003797751 -0.2922860003797751 -0.2922860003797751 -0.2922860003797751 -0.2921471474201015 -0.2921471474201015 -0.2921471474201015 -0.2921471474201015 
-0.2918536313301005 -0.2918536313301005 -0.2918536313301005 -0.2918536313301005 -0.2914468745917048 -0.2914468745917048 -0.2914468745917048 -0.2914468745917048 -0.2909616626378593 
-0.2909616626378593 -0.2909616626378593 -0.2909616626378593 -0.2904339984985897 -0.2904339984985897 -0.2904339984985897 -0.2904339984985897 -0.2899148855596888 -0.2899148855596888 
-0.2899148855596888 -0.2899148855596888 -0.2894974779080621 -0.2894974779080621 -0.2894974779080621 -0.2894974779080621 -0.2893726863865351 -0.2893726863865351 -0.2893726863865351 
-0.2893726863865351 -0.2899410836997823 -0.2899410836997823 -0.2899410836997823 -0.2899410836997823 -0.2920190543163822 -0.2920190543163822 -0.2920190543163822 -0.2920190543163822 
-0.2971528186120074 -0.2971528186120074 -0.2971528186120074 -0.2971528186120074 -0.3078712024578878 -0.3078712024578878 -0.3078712024578878 -0.3078712024578878 -0.3272385305439812 
-0.3272385305439812 -0.3272385305439812 -0.3272385305439812 -0.3568808063939397 -0.3568808063939397 -0.3568808063939397 -0.3568808063939397 -0.3944504505361506 -0.3944504505361506 
-0.3944504505361506 -0.3944504505361506 -0.4338942008403895 -0.4338942008403895 -0.4338942008403895 -0.4338942008403895 -0.469099201525637 -0.469099201525637 -0.469099201525637 
-0.469099201525637 -0.4968912874791109 -0.4968912874791109 -0.4968912874791109 -0.4968912874791109 -0.5170905839419033 -0.5170905839419033 -0.5170905839419033 -0.5170905839419033 
-0.5310406889498339 -0.5310406889498339 -0.5310406889498339 -0.5310406889498339 -0.5403597466811858 -0.5403597466811858 -0.5403597466811858 -0.5403597466811858 -0.5463852483315849 
-0.5463852483315849 -0.5463852483315849 -0.5463852483315849 -0.5500737921009664 -0.5500737921009664 -0.5500737921009664 -0.5500737921009664 -0.5520703734747181 -0.5520703734747181 
-0.5520703734747181 -0.5520703734747181 -0.5528020237144537 -0.5528020237144537 -0.5528020237144537 -0.5528020237144537 -0.5525510864197525 -0.5525510864197525 -0.5525510864197525 
-0.5525510864197525 -0.5515049216003319 -0.5515049216003319 -0.5515049216003319 -0.5515049216003319 -0.5497858730395349 -0.5497858730395349 -0.5497858730395349 -0.5497858730395349 
-0.5474707327167442 -0.5474707327167442 -0.5474707327167442 -0.5474707327167442 -0.544603052685062 -0.544603052685062 -0.544603052685062 -0.544603052685062 -0.54120139676365 
-0.54120139676365 -0.54120139676365 -0.54120139676365 -0.5372649474225147 -0.5372649474225147 -0.5372649474225147 -0.5372649474225147 -0.5327774784778125 -0.5327774784778125 
-0.5327774784778125 -0.5327774784778125 -0.5277103371708352 -0.5277103371708352 -0.5277103371708352 -0.5277103371708352 -0.5220248522523034 -0.5220248522523034 -0.5220248522523034 
-0.5220248522523034 -0.5156744625724452 -0.5156744625724452 -0.5156744625724452 -0.5156744625724452 -0.5086067916332369 -0.5086067916332369 -0.5086067916332369 -0.5086067916332369 
-0.5007658549826384 -0.5007658549826384 -0.5007658549826384 -0.5007658549826384 -0.4920945653295248 -0.4920945653295248 -0.4920945653295248 -0.4920945653295248 -0.4825376857553366 
-0.4825376857553366 -0.4825376857553366 -0.4825376857553366 -0.4720453660339347 -0.4720453660339347 -0.4720453660339347 -0.4720453660339347 -0.460577373307835 -0.460577373307835 
-0.460577373307835 -0.460577373307835 -0.4481080876850894 -0.4481080876850894 -0.4481080876850894 -0.4481080876850894 -0.4346322651996071 -0.4346322651996071 -0.4346322651996071 
-0.4346322651996071 -0.4201714623083393 -0.4201714623083393 -0.4201714623083393 -0.4201714623083393 -0.4047808536999554 -0.4047808536999554 -0.4047808536999554 -0.4047808536999554 
-0.3885559461345859 -0.3885559461345859 -0.3885559461345859 -0.3885559461345859 -0.3716383904491734 -0.3716383904491734 -0.3716383904491734 -0.3716383904491734 -0.3542197364097024 
-0.3542197364097024 -0.3542197364097024 -0.3542197364097024 -0.3365416145088156 -0.3365416145088156 -0.3365416145088156 -0.3365416145088156 -0.3188905842783741 -0.3188905842783741 
-0.3188905842783741 -0.3188905842783741 -0.30158596803174 -0.30158596803174 -0.30158596803174 -0.30158596803174 -0.2849596789112822 -0.2849596789112822 -0.2849596789112822 
-0.2849596789112822 -0.2693286195554214 -0.2693286195554214 -0.2693286195554214 -0.2693286195554214 -0.2549626750012138 -0.2549626750012138 -0.2549626750012138 -0.2549626750012138 
-0.2420540432847154 -0.2420540432847154 -0.2420540432847154 -0.2420540432847154 -0.2306952750943821 -0.2306952750943821 -0.2306952750943821 -0.2306952750943821 -0.2208723510023103 
-0.2208723510023103 -0.2208723510023103 -0.2208723510023103 -0.2124749281746128 -0.2124749281746128 -0.2124749281746128 -0.2124749281746128 -0.2053201775935149 -0.2053201775935149 
-0.2053201775935149 -0.2053201775935149 -0.1991824295507178 -0.1991824295507178 -0.1991824295507178 -0.1991824295507178 -0.1938202546834018 -0.1938202546834018 -0.1938202546834018 
-0.1938202546834018 -0.1889952513329585 -0.1889952513329585 -0.1889952513329585 -0.1889952513329585 -0.1844805508986093 -0.1844805508986093 -0.1844805508986093 -0.1844805508986093 
-0.180059901715143 -0.180059901715143 -0.180059901715143 -0.180059901715143 -0.1755194025864953 -0.1755194025864953 -0.1755194025864953 -0.1755194025864953 -0.170633806323539 
-0.170633806323539 -0.170633806323539 -0.170633806323539 -0.1651483601718889 -0.1651483601718889 -0.1651483601718889 -0.1651483601718889 -0.1587556882712741 -0.1587556882712741 
-0.1587556882712741 -0.1587556882712741 -0.1510650063702715 -0.1510650063702715 -0.1510650063702715 -0.1510650063702715 -0.1415568352846878 -0.1415568352846878 -0.1415568352846878 
-0.1415568352846878 -0.1295069712462231 -0.1295069712462231 -0.1295069712462231 -0.1295069712462231 -0.1138381052026733 -0.1138381052026733 -0.1138381052026733 -0.1138381052026733 
-0.09277578437121028 -0.09277578437121028 -0.09277578437121028 -0.09277578437121028 -0.06285239678290548 -0.06285239678290548 -0.06285239678290548 -0.06285239678290548 -0.01483695533856319 
-0.01483695533856319 -0.01483695533856319 -0.01483695533856319 0.04964266780744296 0.04964266780744296 0.04964266780744296 0.04964266780744296 0.08581795103936385 0.08581795103936385 
0.08581795103936385 0.08581795103936385 0.1106914100686078 0.1106914100686078 0.1106914100686078 0.1106914100686078 0.1291115974080514 0.1291115974080514 0.1291115974080514 
0.1291115974080514 0.1432678484840662 0.1432678484840662 0.1432678484840662 0.1432678484840662 0.1544169041537229 0.1544169041537229 0.1544169041537229 0.1544169041537229 
0.1633819832967759 0.1633819832967759 0.1633819832967759 0.1633819832967759 0.1707454548399911 0.1707454548399911 0.1707454548399911 0.1707454548399911 0.1769396846276375 
0.1769396846276375 0.1769396846276375 0.1769396846276375 0.1822973474391381 0.1822973474391381 0.1822973474391381 0.1822973474391381 0.1870834450589774 0.1870834450589774 
0.1870834450589774 0.1870834450589774 0.1915182109145927 0.1915182109145927 0.1915182109145927 0.1915182109145927 0.1957949728090203 0.1957949728090203 0.1957949728090203 
0.1957949728090203 0.2000947160879513 0.2000947160879513 0.2000947160879513 0.2000947160879513 0.2045977953951407 0.2045977953951407 0.2045977953951407 0.2045977953951407 
0.2094923369029369 0.2094923369029369 0.2094923369029369 0.2094923369029369 0.2149781639195643 0.2149781639195643 0.2149781639195643 0.2149781639195643 0.2212646623738346 
0.2212646623738346 0.2212646623738346 0.2212646623738346 0.2285611904467751 0.2285611904467751 0.2285611904467751 0.2285611904467751 0.2370597945833708 0.2370597945833708 
0.2370597945833708 0.2370597945833708 0.246912192532683 0.246912192532683 0.246912192532683 0.246912192532683 0.2582055958968621 0.2582055958968621 0.2582055958968621 
0.2582055958968621 0.2709436307960416 0.2709436307960416 0.2709436307960416 0.2709436307960416 0.2850380609117636 0.2850380609117636 0.2850380609117636 0.2850380609117636 
0.3003140384024233 0.3003140384024233 0.3003140384024233 0.3003140384024233 0.3165275428460409 0.3165275428460409 0.3165275428460409 0.3165275428460409 0.3333904783895488 