Title = Quad200
FileType = Solution
Variables = q
Zone T = Quad200
ZoneType = FETriangle
Nodes = 160000
Elements = 80000
DataPacking = Block
StrandID = 5
SolutionTime = 0.4
0.7996061292731605 0.7996061292731605 0.7996061292731605 0.7996061292731605 0.8034434125338789 0.8034434125338789 0.8034434125338789 0.8034434125338789 0.8070946964887123 0.8070946964887123 
0.8070946964887123 0.8070946964887123 0.8105546625030635 0.8105546625030635 0.8105546625030635 0.8105546625030635 0.8138173298133677 0.8138173298133677 0.8138173298133677 
0.8138173298133677 0.8168759174675966 0.8168759174675966 0.8168759174675966 0.8168759174675966 0.8197226336850507 0.8197226336850507 0.8197226336850507 0.8197226336850507 
0.8223482128904047 0.8223482128904047 0.8223482128904047 0.8223482128904047 0.8247403755827267 0.8247403755827267 0.8247403755827267 0.8247403755827267 0.8268775152803993 
0.8268775152803993 0.8268775152803993 0.8268775152803993 0.8287015388319741 0.8287015388319741 0.8287015388319741 0.8287015388319741 0.8300010233294041 0.8300010233294041 
0.8300010233294041 0.8300010233294041 0.829913907583502 0.829913907583502 0.829913907583502 0.829913907583502 0.8249656130165548 0.8249656130165548 0.8249656130165548 
0.8249656130165548 0.8026978123385782 0.8026978123385782 0.8026978123385782 0.8026978123385782 0.7295245321634406 0.7295245321634406 0.7295245321634406 0.7295245321634406 
0.5533570233900983 0.5533570233900983 0.5533570233900983 0.5533570233900983 0.2702461891317596 0.2702461891317596 0.2702461891317596 0.2702461891317596 0.04730412821861661 
0.04730412821861661 0.04730412821861661 0.04730412821861661 0.007015885263239358 0.007015885263239358 0.007015885263239358 0.007015885263239358 0.006547966619067787 0.006547966619067787 
0.006547966619067787 0.006547966619067787 0.006722875884974327 0.006722875884974327 0.006722875884974327 0.006722875884974327 0.006890550905782415 0.006890550905782415 0.006890550905782415 
0.006890550905782415 0.007049662885088585 0.007049662885088585 0.007049662885088585 0.007049662885088585 0.007200610699563872 0.007200610699563872 0.007200610699563872 0.007200610699563872 
0.007343769271184076 0.007343769271184076 0.007343769271184076 0.007343769271184076 0.007479486719171025 0.007479486719171025 0.007479486719171025 0.007479486719171025 0.007608085904161224 
0.007608085904161224 0.007608085904161224 0.007608085904161224 0.007729865924587445 0.007729865924587445 0.007729865924587445 0.007729865924587445 0.007845103538852575 0.007845103538852575 
0.007845103538852575 0.007845103538852575 0.007954054504380383 0.007954054504380383 0.007954054504380383 0.007954054504380383 0.008056954828936012 0.008056954828936012 0.008056954828936012 
0.008056954828936012 0.008154021932615572 0.008154021932615572 0.008154021932615572 0.008154021932615572 0.008245455720984445 0.008245455720984445 0.008245455720984445 0.008245455720984445 
0.008331439571231711 0.008331439571231711 0.008331439571231711 0.008331439571231711 0.008412141234103856 0.008412141234103856 0.008412141234103856 0.008412141234103856 0.008487713654899851 
0.008487713654899851 0.008487713654899851 0.008487713654899851 0.008558295717077119 0.008558295717077119 0.008558295717077119 0.008558295717077119 0.008624012912082601 0.008624012912082601 
0.008624012912082601 0.008624012912082601 0.00868497793896239 0.00868497793896239 0.00868497793896239 0.00868497793896239 0.008741291237144228 0.008741291237144228 0.008741291237144228 
0.008741291237144228 0.008793041455581119 0.008793041455581119 0.008793041455581119 0.008793041455581119 0.008840305861275355 0.008840305861275355 0.008840305861275355 0.008840305861275355 
0.008883150690518357 0.008883150690518357 0.008883150690518357 0.008883150690518357 0.008921631449962414 0.008921631449962414 0.008921631449962414 0.008921631449962414 0.00895579320324015 
0.00895579320324015 0.00895579320324015 0.00895579320324015 0.008985671084570247 0.008985671084570247 0.008985671084570247 0.008985671084570247 0.009011292686271417 0.009011292686271417 
0.009011292686271417 0.009011292686271417 0.009032692770413625 0.009032692770413625 0.009032692770413625 0.009032692770413625 0.009049999199605328 0.009049999199605328 0.009049999199605328 
0.009049999199605328 0.009060567160416696 0.009060567160416696 0.009060567160416696 0.009060567160416696 0.009063683211698641 0.009063683211698641 0.009063683211698641 0.009063683211698641 
0.009061838426701116 0.009061838426701116 0.009061838426701116 0.009061838426701116 0.009055569170057927 0.009055569170057927 0.009055569170057927 0.009055569170057927 0.009044954045735744 
0.009044954045735744 0.009044954045735744 0.009044954045735744 0.009029970902805079 0.009029970902805079 0.009029970902805079 0.009029970902805079 0.009010570400193086 0.009010570400193086 
0.009010570400193086 0.009010570400193086 0.008986689201217766 0.008986689201217766 0.008986689201217766 0.008986689201217766 0.008958251862074624 0.008958251862074624 0.008958251862074624 
0.008958251862074624 0.008925170749729585 0.008925170749729585 0.008925170749729585 0.008925170749729585 0.008887345585094103 0.008887345585094103 0.008887345585094103 0.008887345585094103 
0.00884466286511585 0.00884466286511585 0.00884466286511585 0.00884466286511585 0.008796995200222563 0.008796995200222563 0.008796995200222563 0.008796995200222563 0.008744200568748207 
0.008744200568748207 0.008744200568748207 0.008744200568748207 0.008686121483875221 0.008686121483875221 0.008686121483875221 0.008686121483875221 0.008622584067169982 0.008622584067169982 
0.008622584067169982 0.008622584067169982 0.008553397022156746 0.008553397022156746 0.008553397022156746 0.008553397022156746 0.00847835050096675 0.00847835050096675 0.00847835050096675 
0.00847835050096675 0.008397214856821104 0.008397214856821104 0.008397214856821104 0.008397214856821104 0.008309739275013212 0.008309739275013212 0.008309739275013212 0.008309739275013212 
0.008215650275207795 0.008215650275207795 0.008215650275207795 0.008215650275207795 0.008114650078399802 0.008114650078399802 0.008114650078399802 0.008114650078399802 0.008006414832914852 
0.008006414832914852 0.008006414832914852 0.008006414832914852 0.007890592695620469 0.007890592695620469 0.007890592695620469 0.007890592695620469 0.007766801767330305 0.007766801767330305 
0.007766801767330305 0.007766801767330305 0.007634627885646747 0.007634627885646747 0.007634627885646747 0.007634627885646747 0.007493622284751198 0.007493622284751198 0.007493622284751198 
0.007493622284751198 0.007343299140695444 0.007343299140695444 0.007343299140695444 0.007343299140695444 0.007183133033155782 0.007183133033155782 0.007183133033155782 0.007183133033155782 
0.007012550457780553 0.007012550457780553 0.007012550457780553 0.007012550457780553 0.006641208212207619 0.006641208212207619 0.006641208212207619 0.006641208212207619 -0.02756337327607702 
-0.02756337327607702 -0.02756337327607702 -0.02756337327607702 -0.2449028642055787 -0.2449028642055787 -0.2449028642055787 -0.2449028642055787 -0.530664787726888 -0.530664787726888 
-0.530664787726888 -0.530664787726888 -0.7131648301839705 -0.7131648301839705 -0.7131648301839705 -0.7131648301839705 -0.7919761788597763 -0.7919761788597763 -0.7919761788597763 
-0.7919761788597763 -0.8173309015061494 -0.8173309015061494 -0.8173309015061494 -0.8173309015061494 -0.8235598862484612 -0.8235598862484612 -0.8235598862484612 -0.8235598862484612 
-0.824161320258765 -0.824161320258765 -0.824161320258765 -0.824161320258765 -0.8231234283968596 -0.8231234283968596 -0.8231234283968596 -0.8231234283968596 -0.821486701560088 
-0.821486701560088 -0.821486701560088 -0.821486701560088 -0.8195151163479922 -0.8195151163479922 -0.8195151163479922 -0.8195151163479922 -0.8172811144668645 -0.8172811144668645 
-0.8172811144668645 -0.8172811144668645 -0.8148102284162511 -0.8148102284162511 -0.8148102284162511 -0.8148102284162511 -0.8121159521314697 -0.8121159521314697 -0.8121159521314697 
-0.8121159521314697 -0.8092080675665141 -0.8092080675665141 -0.8092080675665141 -0.8092080675665141 -0.8060946824938036 -0.8060946824938036 -0.8060946824938036 -0.8060946824938036 
-0.8027828141355962 -0.8027828141355962 -0.8027828141355962 -0.8027828141355962 -0.7992786322478441 -0.7992786322478441 -0.7992786322478441 -0.7992786322478441 -0.7955876094222086 
-0.7955876094222086 -0.7955876094222086 -0.7955876094222086 -0.7917146343464865 -0.7917146343464865 -0.7917146343464865 -0.7917146343464865 -0.7876641029102192 -0.7876641029102192 
-0.7876641029102192 -0.7876641029102192 -0.7834399931547045 -0.7834399931547045 -0.7834399931547045 -0.7834399931547045 -0.779045927653038 -0.779045927653038 -0.779045927653038 
-0.779045927653038 -0.7744852258748625 -0.7744852258748625 -0.7744852258748625 -0.7744852258748625 -0.7697609484598742 -0.7697609484598742 -0.7697609484598742 -0.7697609484598742 
-0.7648759348810068 -0.7648759348810068 -0.7648759348810068 -0.7648759348810068 -0.7598328356528611 -0.7598328356528611 -0.7598328356528611 -0.7598328356528611 -0.7546341399973386 
-0.7546341399973386 -0.7546341399973386 -0.7546341399973386 -0.7492821996933615 -0.7492821996933615 -0.7492821996933615 -0.7492821996933615 -0.7437792496953693 -0.7437792496953693 
-0.7437792496953693 -0.7437792496953693 -0.7381274259948173 -0.7381274259948173 -0.7381274259948173 -0.7381274259948173 -0.7323287811123731 -0.7323287811123731 -0.7323287811123731 
-0.7323287811123731 -0.7263852975401176 -0.7263852975401176 -0.7263852975401176 -0.7263852975401176 -0.720298899398619 -0.720298899398619 -0.720298899398619 -0.720298899398619 
-0.714071462529971 -0.714071462529971 -0.714071462529971 -0.714071462529971 -0.707704823212374 -0.707704823212374 -0.707704823212374 -0.707704823212374 -0.7012007856521609 
-0.7012007856521609 -0.7012007856521609 -0.7012007856521609 -0.6945611283838492 -0.6945611283838492 -0.6945611283838492 -0.6945611283838492 -0.6877876096848473 -0.6877876096848473 
-0.6877876096848473 -0.6877876096848473 -0.6808819720863998 -0.6808819720863998 -0.6808819720863998 -0.6808819720863998 -0.6738459460307401 -0.6738459460307401 -0.6738459460307401 
-0.6738459460307401 -0.666681252677663 -0.666681252677663 -0.666681252677663 -0.666681252677663 -0.6593896057858071 -0.6593896057858071 -0.6593896057858071 -0.6593896057858071 
-0.6519727124546004 -0.6519727124546004 -0.6519727124546004 -0.6519727124546004 -0.6444322722530309 -0.6444322722530309 -0.6444322722530309 -0.6444322722530309 -0.636769973774151 
-0.636769973774151 -0.636769973774151 -0.636769973774151 -0.6289874866852581 -0.6289874866852581 -0.6289874866852581 -0.6289874866852581 -0.621086445684546 -0.621086445684546 
-0.621086445684546 -0.621086445684546 -0.6130684276536433 -0.6130684276536433 -0.6130684276536433 -0.6130684276536433 -0.6049349064162148 -0.6049349064162148 -0.6049349064162148 
-0.6049349064162148 -0.5966871284412207 -0.5966871284412207 -0.5966871284412207 -0.5966871284412207 -0.5883259065994521 -0.5883259065994521 -0.5883259065994521 -0.5883259065994521 
-0.5798512396285482 -0.5798512396285482 -0.5798512396285482 -0.5798512396285482 -0.571261606321527 -0.571261606321527 -0.571261606321527 -0.571261606321527 -0.5625526595248502 
-0.5625526595248502 -0.5625526595248502 -0.5625526595248502 -0.5537148244049869 -0.5537148244049869 -0.5537148244049869 -0.5537148244049869 -0.5447289120951502 -0.5447289120951502 
-0.5447289120951502 -0.5447289120951502 -0.5355581774363594 -0.5355581774363594 -0.5355581774363594 -0.5355581774363594 -0.5261340978766003 -0.5261340978766003 -0.5261340978766003 
-0.5261340978766003 -0.5163312844026923 -0.5163312844026923 -0.5163312844026923 -0.5163312844026923 -0.5059240994921428 -0.5059240994921428 -0.5059240994921428 -0.5059240994921428 
-0.494513680610622 -0.494513680610622 -0.494513680610622 -0.494513680610622 -0.4814097218897405 -0.4814097218897405 -0.4814097218897405 -0.4814097218897405 -0.4654485568057651 
-0.4654485568057651 -0.4654485568057651 -0.4654485568057651 -0.4447334845761706 -0.4447334845761706 -0.4447334845761706 -0.4447334845761706 -0.4162817950322678 -0.4162817950322678 
-0.4162817950322678 -0.4162817950322678 -0.3757649342779741 -0.3757649342779741 -0.3757649342779741 -0.3757649342779741 -0.3164309273234076 -0.3164309273234076 -0.3164309273234076 
-0.3164309273234076 -0.2291248402834608 -0.2291248402834608 -0.2291248402834608 -0.2291248402834608 -0.1109746794075866 -0.1109746794075866 -0.1109746794075866 -0.1109746794075866 
0.08731245352217754 0.08731245352217754 0.08731245352217754 0.08731245352217754 0.2187671666728128 0.2187671666728128 0.2187671666728128 0.2187671666728128 0.3103241663884191 
0.3103241663884191 0.3103241663884191 0.3103241663884191 0.3766179075798076 0.3766179075798076 0.3766179075798076 0.3766179075798076 0.4220285196514689 0.4220285196514689 
0.4220285196514689 0.4220285196514689 0.4541502730495875 0.4541502730495875 0.4541502730495875 0.4541502730495875 0.4774488909123143 0.4774488909123143 0.4774488909123143 
0.4774488909123143 0.4951611788903346 0.4951611788903346 0.4951611788903346 0.4951611788903346 0.5094048791505624 0.5094048791505624 0.5094048791505624 0.5094048791505624 
0.5215275566631832 0.5215275566631832 0.5215275566631832 0.5215275566631832 0.5323602411054666 0.5323602411054666 0.5323602411054666 0.5323602411054666 0.542402108932004 
0.542402108932004 0.542402108932004 0.542402108932004 0.5519465943935447 0.5519465943935447 0.5519465943935447 0.5519465943935447 0.5611631406805146 0.5611631406805146 
0.5611631406805146 0.5611631406805146 0.5701480770999631 0.5701480770999631 0.5701480770999631 0.5701480770999631 0.5789553254614067 0.5789553254614067 0.5789553254614067 
0.5789553254614067 0.5876145166598576 0.5876145166598576 0.5876145166598576 0.5876145166598576 0.59614150120722 0.59614150120722 0.59614150120722 0.59614150120722 
0.6045443705080574 0.6045443705080574 0.6045443705080574 0.6045443705080574 0.6128268729995509 0.6128268729995509 0.6128268729995509 0.6128268729995509 0.6209903378256418 
0.6209903378256418 0.6209903378256418 0.6209903378256418 0.6290347511098154 0.6290347511098154 0.6290347511098154 0.6290347511098154 0.6369593539076265 0.6369593539076265 
0.6369593539076265 0.6369593539076265 0.644762984568747 0.644762984568747 0.644762984568747 0.644762984568747 0.6524442707506861 0.6524442707506861 0.6524442707506861 
0.6524442707506861 0.660001711918489 0.660001711918489 0.660001711918489 0.660001711918489 0.667433732527229 0.667433732527229 0.667433732527229 0.667433732527229 
0.6747387116374435 0.6747387116374435 0.6747387116374435 0.6747387116374435 0.6819149984541553 0.6819149984541553 0.6819149984541553 0.6819149984541553 0.6889609198495462 
0.6889609198495462 0.6889609198495462 0.6889609198495462 0.6958747832356162 0.6958747832356162 0.6958747832356162 0.6958747832356162 0.7026548766013825 0.7026548766013825 
0.7026548766013825 0.7026548766013825 0.7092994666648217 0.7092994666648217 0.7092994666648217 0.7092994666648217 0.7158067956159521 0.7158067956159521 0.7158067956159521 
0.7158067956159521 0.7221750766643266 0.7221750766643266 0.7221750766643266 0.7221750766643266 0.7284024884552436 0.7284024884552436 0.7284024884552436 0.7284024884552436 
0.7344871683301381 0.7344871683301381 0.7344871683301381 0.7344871683301381 0.7404272043488929 0.7404272043488929 0.7404272043488929 0.7404272043488929 0.7462206259481159 
0.7462206259481159 0.7462206259481159 0.7462206259481159 0.7518653930713312 0.7518653930713312 0.7518653930713312 0.7518653930713312 0.7573593835675428 0.7573593835675428 
0.7573593835675428 0.7573593835675428 0.7627003786104045 0.7627003786104045 0.7627003786104045 0.7627003786104045 0.7678860458373387 0.7678860458373387 0.7678860458373387 
0.7678860458373387 0.7729139198427949 0.7729139198427949 0.7729139198427949 0.7729139198427949 0.7777813795782877 0.7777813795782877 0.7777813795782877 0.7777813795782877 
0.7824856221082991 0.7824856221082991 0.7824856221082991 0.7824856221082991 0.7870236320382618 0.7870236320382618 0.7870236320382618 0.7870236320382618 0.7913921457585517 
0.7913921457585517 0.7913921457585517 0.7913921457585517 0.7955876094222086 0.7955876094222086 0.7955876094222086 0.7955876094222086 0.8034434125338783 0.8034434125338783 
0.8034434125338783 0.8034434125338783 0.8074275996752733 0.8074275996752733 0.8074275996752733 0.8074275996752733 0.8112265491182904 0.8112265491182904 0.8112265491182904 
0.8112265491182904 0.8148350858648016 0.8148350858648016 0.8148350858648016 0.8148350858648016 0.8182474045428593 0.8182474045428593 0.8182474045428593 0.8182474045428593 
0.8214569414991741 0.8214569414991741 0.8214569414991741 0.8214569414991741 0.8244561885243753 0.8244561885243753 0.8244561885243753 0.8244561885243753 0.8272363159237763 
0.8272363159237763 0.8272363159237763 0.8272363159237763 0.829785985627612 0.829785985627612 0.829785985627612 0.829785985627612 0.8320864856610767 0.8320864856610767 
0.8320864856610767 0.8320864856610767 0.8340901955457494 0.8340901955457494 0.8340901955457494 0.8340901955457494 0.8356241562689608 0.8356241562689608 0.8356241562689608 
0.8356241562689608 0.83595758483555 0.83595758483555 0.83595758483555 0.83595758483555 0.8319838463521837 0.8319838463521837 0.8319838463521837 0.8319838463521837 
0.8119184354529108 0.8119184354529108 0.8119184354529108 0.8119184354529108 0.7423423006440282 0.7423423006440282 0.7423423006440282 0.7423423006440282 0.5691256205229406 
0.5691256205229406 0.5691256205229406 0.5691256205229406 0.2851313985083651 0.2851313985083651 0.2851313985083651 0.2851313985083651 0.05790339337031001 0.05790339337031001 
0.05790339337031001 0.05790339337031001 0.0146891009411485 0.0146891009411485 0.0146891009411485 0.0146891009411485 0.01408395620787981 0.01408395620787981 0.01408395620787981 
0.01408395620787981 0.01441019686764884 0.01441019686764884 0.01441019686764884 0.01441019686764884 0.01472441920677752 0.01472441920677752 0.01472441920677752 0.01472441920677752 
0.01502166005197196 0.01502166005197196 0.01502166005197196 0.01502166005197196 0.01530277450641535 0.01530277450641535 0.01530277450641535 0.01530277450641535 0.01556857938275362 
0.01556857938275362 0.01556857938275362 0.01556857938275362 0.01581982481172838 0.01581982481172838 0.01581982481172838 0.01581982481172838 0.01605719997245082 0.01605719997245082 
0.01605719997245082 0.01605719997245082 0.01628133833954814 0.01628133833954814 0.01628133833954814 0.01628133833954814 0.01649282233010434 0.01649282233010434 0.01649282233010434 
0.01649282233010434 0.01669218742731929 0.01669218742731929 0.01669218742731929 0.01669218742731929 0.01687992584673785 0.01687992584673785 0.01687992584673785 0.01687992584673785 
0.017056489800772 0.017056489800772 0.017056489800772 0.017056489800772 0.01722229440885172 0.01722229440885172 0.01722229440885172 0.01722229440885172 0.01737772029357418 
0.01737772029357418 0.01737772029357418 0.01737772029357418 0.01752311589738505 0.01752311589738505 0.01752311589738505 0.01752311589738505 0.01765879954941922 0.01765879954941922 
0.01765879954941922 0.01765879954941922 0.01778506130796809 0.01778506130796809 0.01778506130796809 0.01778506130796809 0.01790216460049963 0.01790216460049963 0.01790216460049963 
0.01790216460049963 0.0180103476801194 0.0180103476801194 0.0180103476801194 0.0180103476801194 0.01810982491474058 0.01810982491474058 0.01810982491474058 0.01810982491474058 
0.01820078792295579 0.01820078792295579 0.01820078792295579 0.01820078792295579 0.01828340656862262 0.01828340656862262 0.01828340656862262 0.01828340656862262 0.01835782982449257 
0.01835782982449257 0.01835782982449257 0.01835782982449257 0.01842418651418401 0.01842418651418401 0.01842418651418401 0.01842418651418401 0.0184825859444786 0.0184825859444786 
0.0184825859444786 0.0184825859444786 0.01853311847062117 0.01853311847062117 0.01853311847062117 0.01853311847062117 0.01857585627955414 0.01857585627955414 0.01857585627955414 
0.01857585627955414 0.01861085639891173 0.01861085639891173 0.01861085639891173 0.01861085639891173 0.01863817871555666 0.01863817871555666 0.01863817871555666 0.01863817871555666 
0.01865718632975395 0.01865718632975395 0.01865718632975395 0.01865718632975395 0.01866752066218515 0.01866752066218515 0.01866752066218515 0.01866752066218515 0.01866969843540638 
0.01866969843540638 0.01866969843540638 0.01866969843540638 0.0186639889802895 0.0186639889802895 0.0186639889802895 0.0186639889802895 0.01865045650249151 0.01865045650249151 
0.01865045650249151 0.01865045650249151 0.01862906966534229 0.01862906966534229 0.01862906966534229 0.01862906966534229 0.01859975345797129 0.01859975345797129 0.01859975345797129 
0.01859975345797129 0.01856240625586527 0.01856240625586527 0.01856240625586527 0.01856240625586527 0.0185169041349791 0.0185169041349791 0.0185169041349791 0.0185169041349791 
0.01846310131542829 0.01846310131542829 0.01846310131542829 0.01846310131542829 0.0184008294808461 0.0184008294808461 0.0184008294808461 0.0184008294808461 0.01832989670385067 
0.01832989670385067 0.01832989670385067 0.01832989670385067 0.01825008614614197 0.01825008614614197 0.01825008614614197 0.01825008614614197 0.01816115455867244 0.01816115455867244 
0.01816115455867244 0.01816115455867244 0.01806283057115899 0.01806283057115899 0.01806283057115899 0.01806283057115899 0.01795481274905002 0.01795481274905002 0.01795481274905002 
0.01795481274905002 0.0178367673901326 0.0178367673901326 0.0178367673901326 0.0178367673901326 0.01770832602759927 0.01770832602759927 0.01770832602759927 0.01770832602759927 
0.01756908260039966 0.01756908260039966 0.01756908260039966 0.01756908260039966 0.01741859024462511 0.01741859024462511 0.01741859024462511 0.01741859024462511 0.01725635765117586 
0.01725635765117586 0.01725635765117586 0.01725635765117586 0.01708184492468674 0.01708184492468674 0.01708184492468674 0.01708184492468674 0.01689445886619147 0.01689445886619147 
0.01689445886619147 0.01689445886619147 0.01669354758670483 0.01669354758670483 0.01669354758670483 0.01669354758670483 0.01647839434009764 0.01647839434009764 0.01647839434009764 
0.01647839434009764 0.01624821044034461 0.01624821044034461 0.01624821044034461 0.01624821044034461 0.01600212709925555 0.01600212709925555 0.01600212709925555 0.01600212709925555 
0.01573918598449665 0.01573918598449665 0.01573918598449665 0.01573918598449665 0.01545832825187135 0.01545832825187135 0.01545832825187135 0.01545832825187135 0.01515837865173377 
0.01515837865173377 0.01515837865173377 0.01515837865173377 0.01477900212677849 0.01477900212677849 0.01477900212677849 0.01477900212677849 -0.01132717346176227 -0.01132717346176227 
-0.01132717346176227 -0.01132717346176227 -0.2150010096575445 -0.2150010096575445 -0.2150010096575445 -0.2150010096575445 -0.5020743614732749 -0.5020743614732749 -0.5020743614732749 
-0.5020743614732749 -0.6931244385194543 -0.6931244385194543 -0.6931244385194543 -0.6931244385194543 -0.7795451065117429 -0.7795451065117429 -0.7795451065117429 -0.7795451065117429 
-0.8089727080164291 -0.8089727080164291 -0.8089727080164291 -0.8089727080164291 -0.8168571733934478 -0.8168571733934478 -0.8168571733934478 -0.8168571733934478 -0.8180950477835212 
-0.8180950477835212 -0.8180950477835212 -0.8180950477835212 -0.8173554259276108 -0.8173554259276108 -0.8173554259276108 -0.8173554259276108 -0.8159164931846863 -0.8159164931846863 
-0.8159164931846863 -0.8159164931846863 -0.814113512673863 -0.814113512673863 -0.814113512673863 -0.814113512673863 -0.8120386138118743 -0.8120386138118743 -0.8120386138118743 
-0.8120386138118743 -0.8097227046721335 -0.8097227046721335 -0.8097227046721335 -0.8097227046721335 -0.8071808780197964 -0.8071808780197964 -0.8071808780197964 -0.8071808780197964 
-0.8044235411882117 -0.8044235411882117 -0.8044235411882117 -0.8044235411882117 -0.801459158192342 -0.801459158192342 -0.801459158192342 -0.801459158192342 -0.798295004476963 
-0.798295004476963 -0.798295004476963 -0.798295004476963 -0.7949374542151781 -0.7949374542151781 -0.7949374542151781 -0.7949374542151781 -0.7913921457585517 -0.7913921457585517 
-0.7913921457585517 -0.7913921457585517 -0.787664102910219 -0.787664102910219 -0.787664102910219 -0.787664102910219 -0.7837578316524337 -0.7837578316524337 -0.7837578316524337 
-0.7837578316524337 -0.7796773994669048 -0.7796773994669048 -0.7796773994669048 -0.7796773994669048 -0.7754265012322757 -0.7754265012322757 -0.7754265012322757 -0.7754265012322757 
-0.7710085144715257 -0.7710085144715257 -0.7710085144715257 -0.7710085144715257 -0.7664265460219385 -0.7664265460219385 -0.7664265460219385 -0.7664265460219385 -0.7616834717168161 
-0.7616834717168161 -0.7616834717168161 -0.7616834717168161 -0.7567819703153944 -0.7567819703153944 -0.7567819703153944 -0.7567819703153944 -0.7517245526542112 -0.7517245526542112 
-0.7517245526542112 -0.7517245526542112 -0.7465135867938724 -0.7465135867938724 -0.7465135867938724 -0.7465135867938724 -0.7411513197823745 -0.7411513197823745 -0.7411513197823745 
-0.7411513197823745 -0.7356398965377827 -0.7356398965377827 -0.7356398965377827 -0.7356398965377827 -0.729981376260513 -0.729981376260513 -0.729981376260513 -0.729981376260513 
-0.7241777467125774 -0.7241777467125774 -0.7241777467125774 -0.7241777467125774 -0.7182309366432758 -0.7182309366432758 -0.7182309366432758 -0.7182309366432758 -0.712142826594669 
-0.712142826594669 -0.712142826594669 -0.712142826594669 -0.7059152582830991 -0.7059152582830991 -0.7059152582830991 -0.7059152582830991 -0.699550042723117 -0.699550042723117 
-0.699550042723117 -0.699550042723117 -0.6930489672358263 -0.6930489672358263 -0.6930489672358263 -0.6930489672358263 -0.6864138014636176 -0.6864138014636176 -0.6864138014636176 
-0.6864138014636176 -0.6796463024963224 -0.6796463024963224 -0.6796463024963224 -0.6796463024963224 -0.6727482191987614 -0.6727482191987614 -0.6727482191987614 -0.6727482191987614 
-0.6657212958148977 -0.6657212958148977 -0.6657212958148977 -0.6657212958148977 -0.6585672749068351 -0.6585672749068351 -0.6585672749068351 -0.6585672749068351 -0.6512878996632376 
-0.6512878996632376 -0.6512878996632376 -0.6512878996632376 -0.6438849155732475 -0.6438849155732475 -0.6438849155732475 -0.6438849155732475 -0.6363600713935595 -0.6363600713935595 
-0.6363600713935595 -0.6363600713935595 -0.6287151192085761 -0.6287151192085761 -0.6287151192085761 -0.6287151192085761 -0.6209518131475035 -0.6209518131475035 -0.6209518131475035 
-0.6209518131475035 -0.6130719058409695 -0.6130719058409695 -0.6130719058409695 -0.6130719058409695 -0.6050771402437014 -0.6050771402437014 -0.6050771402437014 -0.6050771402437014 
-0.5969692488806093 -0.5969692488806093 -0.5969692488806093 -0.5969692488806093 -0.5887499233994863 -0.5887499233994863 -0.5887499233994863 -0.5887499233994863 -0.5804207400776327 
-0.5804207400776327 -0.5804207400776327 -0.5804207400776327 -0.5719830436230666 -0.5719830436230666 -0.5719830436230666 -0.5719830436230666 -0.5634377198420764 -0.5634377198420764 
-0.5634377198420764 -0.5634377198420764 -0.5547847579097986 -0.5547847579097986 -0.5547847579097986 -0.5547847579097986 -0.5460224096031694 -0.5460224096031694 -0.5460224096031694 
-0.5460224096031694 -0.5371455819020146 -0.5371455819020146 -0.5371455819020146 -0.5371455819020146 -0.5281427832887818 -0.5281427832887818 -0.5281427832887818 -0.5281427832887818 
-0.5189903669044502 -0.5189903669044502 -0.5189903669044502 -0.5189903669044502 -0.5096417847018009 -0.5096417847018009 -0.5096417847018009 -0.5096417847018009 -0.5000077921555414 
-0.5000077921555414 -0.5000077921555414 -0.5000077921555414 -0.4899206379458086 -0.4899206379458086 -0.4899206379458086 -0.4899206379458086 -0.479070907577948 -0.479070907577948 
-0.479070907577948 -0.479070907577948 -0.4669000585431048 -0.4669000585431048 -0.4669000585431048 -0.4669000585431048 -0.4524264275873179 -0.4524264275873179 -0.4524264275873179 
-0.4524264275873179 -0.433982183588097 -0.433982183588097 -0.433982183588097 -0.433982183588097 -0.4088390502121135 -0.4088390502121135 -0.4088390502121135 -0.4088390502121135 
-0.3727798301854022 -0.3727798301854022 -0.3727798301854022 -0.3727798301854022 -0.3197173250662262 -0.3197173250662262 -0.3197173250662262 -0.3197173250662262 -0.2387233843899844 
-0.2387233843899844 -0.2387233843899844 -0.2387233843899844 -0.1292294610379254 -0.1292294610379254 -0.1292294610379254 -0.1292294610379254 0.05381066480786263 0.05381066480786263 
0.05381066480786263 0.05381066480786263 0.2053597440844196 0.2053597440844196 0.2053597440844196 0.2053597440844196 0.3018838275518012 0.3018838275518012 0.3018838275518012 
0.3018838275518012 0.3753936215956818 0.3753936215956818 0.3753936215956818 0.3753936215956818 0.4259078640734578 0.4259078640734578 0.4259078640734578 0.4259078640734578 
0.462023292624255 0.462023292624255 0.462023292624255 0.462023292624255 0.4882555047371033 0.4882555047371033 0.4882555047371033 0.4882555047371033 0.5080169176456394 
0.5080169176456394 0.5080169176456394 0.5080169176456394 0.523634428997915 0.523634428997915 0.523634428997915 0.523634428997915 0.5366441953075598 0.5366441953075598 
0.5366441953075598 0.5366441953075598 0.5480276862934216 0.5480276862934216 0.5480276862934216 0.5480276862934216 0.5583951378773286 0.5583951378773286 0.5583951378773286 
0.5583951378773286 0.5681177128378355 0.5681177128378355 0.5681177128378355 0.5681177128378355 0.5774171574987794 0.5774171574987794 0.5774171574987794 0.5774171574987794 
0.5864239734708206 0.5864239734708206 0.5864239734708206 0.5864239734708206 0.5952139159832375 0.5952139159832375 0.5952139159832375 0.5952139159832375 0.6038303302182764 
0.6038303302182764 0.6038303302182764 0.6038303302182764 0.6122975705871948 0.6122975705871948 0.6122975705871948 0.6122975705871948 0.6206289521212329 0.6206289521212329 
0.6206289521212329 0.6206289521212329 0.6288314122363439 0.6288314122363439 0.6288314122363439 0.6288314122363439 0.636908221311168 0.636908221311168 0.636908221311168 