Title = Quad200
FileType = Solution
Variables = q
Zone T = Quad200
ZoneType = FETriangle
Nodes = 160000
Elements = 80000
DataPacking = Block
StrandID = 8
SolutionTime = 0.7000000000000001
0.5278674741584031 0.5278674741584031 0.5278674741584031 0.5278674741584031 0.530686805584863 0.530686805584863 0.530686805584863 0.530686805584863 0.5334223914122395 0.5334223914122395 
0.5334223914122395 0.5334223914122395 0.5360740164806548 0.5360740164806548 0.5360740164806548 0.5360740164806548 0.5386414672261034 0.5386414672261034 0.5386414672261034 
0.5386414672261034 0.5411245248109602 0.5411245248109602 0.5411245248109602 0.5411245248109602 0.5435229573739065 0.5435229573739065 0.5435229573739065 0.5435229573739065 
0.5458365109950936 0.5458365109950936 0.5458365109950936 0.5458365109950936 0.5480648983750125 0.5480648983750125 0.5480648983750125 0.5480648983750125 0.5502077827295768 
0.5502077827295768 0.5502077827295768 0.5502077827295768 0.5522647508315827 0.5522647508315827 0.5522647508315827 0.5522647508315827 0.5542352610211273 0.5542352610211273 
0.5542352610211273 0.5542352610211273 0.5561185345292231 0.5561185345292231 0.5561185345292231 0.5561185345292231 0.5579133226607507 0.5579133226607507 0.5579133226607507 
0.5579133226607507 0.5596174126925664 0.5596174126925664 0.5596174126925664 0.5596174126925664 0.561226606336942 0.561226606336942 0.561226606336942 0.561226606336942 
0.5627326774935282 0.5627326774935282 0.5627326774935282 0.5627326774935282 0.5641194355036265 0.5641194355036265 0.5641194355036265 0.5641194355036265 0.5653554133012013 
0.5653554133012013 0.5653554133012013 0.5653554133012013 0.5663807762480281 0.5663807762480281 0.5663807762480281 0.5663807762480281 0.567084695797044 0.567084695797044 
0.567084695797044 0.567084695797044 0.567267549794043 0.567267549794043 0.567267549794043 0.567267549794043 0.566581131549898 0.566581131549898 0.566581131549898 
0.566581131549898 0.5644381996630659 0.5644381996630659 0.5644381996630659 0.5644381996630659 0.5598788986470002 0.5598788986470002 0.5598788986470002 0.5598788986470002 
0.5513870325024148 0.5513870325024148 0.5513870325024148 0.5513870325024148 0.5366581253742592 0.5366581253742592 0.5366581253742592 0.5366581253742592 0.5123544487250827 
0.5123544487250827 0.5123544487250827 0.5123544487250827 0.4739696216780903 0.4739696216780903 0.4739696216780903 0.4739696216780903 0.416136900810429 0.416136900810429 
0.416136900810429 0.416136900810429 0.3341644502972734 0.3341644502972734 0.3341644502972734 0.3341644502972734 0.2282735925537027 0.2282735925537027 0.2282735925537027 
0.2282735925537027 0.1122689075665591 0.1122689075665591 0.1122689075665591 0.1122689075665591 0.02674405450101746 0.02674405450101746 0.02674405450101746 0.02674405450101746 
0.006682060550194495 0.006682060550194495 0.006682060550194495 0.006682060550194495 0.006068875506842384 0.006068875506842384 0.006068875506842384 0.006068875506842384 0.006106355893932939 
0.006106355893932939 0.006106355893932939 0.006106355893932939 0.00614755430537592 0.00614755430537592 0.00614755430537592 0.00614755430537592 0.006186243224563657 0.006186243224563657 
0.006186243224563657 0.006186243224563657 0.006222441951739873 0.006222441951739873 0.006222441951739873 0.006222441951739873 0.006256226588952703 0.006256226588952703 0.006256226588952703 
0.006256226588952703 0.006287665496536702 0.006287665496536702 0.006287665496536702 0.006287665496536702 0.006316818908970854 0.006316818908970854 0.006316818908970854 0.006316818908970854 
0.006343739330667951 0.006343739330667951 0.006343739330667951 0.006343739330667951 0.00636847193253306 0.00636847193253306 0.00636847193253306 0.00636847193253306 0.006391055138626308 
0.006391055138626308 0.006391055138626308 0.006391055138626308 0.00641152238650672 0.00641152238650672 0.00641152238650672 0.00641152238650672 0.006429909743443638 0.006429909743443638 
0.006429909743443638 0.006429909743443638 0.00644629037029548 0.00644629037029548 0.00644629037029548 0.00644629037029548 0.00646092143084897 0.00646092143084897 0.00646092143084897 
0.00646092143084897 0.006470840801160518 0.006470840801160518 0.006470840801160518 0.006470840801160518 0.006474971380959626 0.006474971380959626 0.006474971380959626 0.006474971380959626 
0.006475999762000957 0.006475999762000957 0.006475999762000957 0.006475999762000957 0.006474685099402635 0.006474685099402635 0.006474685099402635 0.006474685099402635 0.006471216767960808 
0.006471216767960808 0.006471216767960808 0.006471216767960808 0.006465624024227819 0.006465624024227819 0.006465624024227819 0.006465624024227819 0.006457890235683582 0.006457890235683582 
0.006457890235683582 0.006457890235683582 0.006447982060617045 0.006447982060617045 0.006447982060617045 0.006447982060617045 0.006435856215847049 0.006435856215847049 0.006435856215847049 
0.006435856215847049 0.006421460719120511 0.006421460719120511 0.006421460719120511 0.006421460719120511 0.006404734786448299 0.006404734786448299 0.006404734786448299 0.006404734786448299 
0.006385608356885317 0.006385608356885317 0.006385608356885317 0.006385608356885317 0.006364001458853583 0.006364001458853583 0.006364001458853583 0.006364001458853583 0.006339823448209934 
0.006339823448209934 0.006339823448209934 0.006339823448209934 0.006312971123373605 0.006312971123373605 0.006312971123373605 0.006312971123373605 0.006280871919927414 0.006280871919927414 
0.006280871919927414 0.006280871919927414 0.003744424079192697 0.003744424079192697 0.003744424079192697 0.003744424079192697 -0.0453607132505404 -0.0453607132505404 -0.0453607132505404 
-0.0453607132505404 -0.1575167653888953 -0.1575167653888953 -0.1575167653888953 -0.1575167653888953 -0.2742072368113461 -0.2742072368113461 -0.2742072368113461 -0.2742072368113461 
-0.3702287919843914 -0.3702287919843914 -0.3702287919843914 -0.3702287919843914 -0.440631368113494 -0.440631368113494 -0.440631368113494 -0.440631368113494 -0.4887104965760963 
-0.4887104965760963 -0.4887104965760963 -0.4887104965760963 -0.5199001512729091 -0.5199001512729091 -0.5199001512729091 -0.5199001512729091 -0.5392651766171379 -0.5392651766171379 
-0.5392651766171379 -0.5392651766171379 -0.5507597984107457 -0.5507597984107457 -0.5507597984107457 -0.5507597984107457 -0.5572074890600465 -0.5572074890600465 -0.5572074890600465 
-0.5572074890600465 -0.5605129381401708 -0.5605129381401708 -0.5605129381401708 -0.5605129381401708 -0.5619071897904144 -0.5619071897904144 -0.5619071897904144 -0.5619071897904144 
-0.5621573646786147 -0.5621573646786147 -0.5621573646786147 -0.5621573646786147 -0.561725788179633 -0.561725788179633 -0.561725788179633 -0.561725788179633 -0.5608823123010274 
-0.5608823123010274 -0.5608823123010274 -0.5608823123010274 -0.5597789891218836 -0.5597789891218836 -0.5597789891218836 -0.5597789891218836 -0.5584989462649648 -0.5584989462649648 
-0.5584989462649648 -0.5584989462649648 -0.5570863732527656 -0.5570863732527656 -0.5570863732527656 -0.5570863732527656 -0.5555641731195303 -0.5555641731195303 -0.5555641731195303 
-0.5555641731195303 -0.5539439936462779 -0.5539439936462779 -0.5539439936462779 -0.5539439936462779 -0.5522317211524931 -0.5522317211524931 -0.5522317211524931 -0.5522317211524931 
-0.5504303772801042 -0.5504303772801042 -0.5504303772801042 -0.5504303772801042 -0.548541589729824 -0.548541589729824 -0.548541589729824 -0.548541589729824 -0.5465663124231985 
-0.5465663124231985 -0.5465663124231985 -0.5465663124231985 -0.5445051672501248 -0.5445051672501248 -0.5445051672501248 -0.5445051672501248 -0.5423586030744603 -0.5423586030744603 
-0.5423586030744603 -0.5423586030744603 -0.5401269701187932 -0.5401269701187932 -0.5401269701187932 -0.5401269701187932 -0.5378105566335895 -0.5378105566335895 -0.5378105566335895 
-0.5378105566335895 -0.5354096092225151 -0.5354096092225151 -0.5354096092225151 -0.5354096092225151 -0.5329243461130339 -0.5329243461130339 -0.5329243461130339 -0.5329243461130339 
-0.5303549672362742 -0.5303549672362742 -0.5303549672362742 -0.5303549672362742 -0.5277016626687171 -0.5277016626687171 -0.5277016626687171 -0.5277016626687171 -0.5249646200521249 
-0.5249646200521249 -0.5249646200521249 -0.5249646200521249 -0.5221440312455399 -0.5221440312455399 -0.5221440312455399 -0.5221440312455399 -0.5192400983265516 -0.5192400983265516 
-0.5192400983265516 -0.5192400983265516 -0.51625303900685 -0.51625303900685 -0.51625303900685 -0.51625303900685 -0.5131830915052489 -0.5131830915052489 -0.5131830915052489 
-0.5131830915052489 -0.5100305189104248 -0.5100305189104248 -0.5100305189104248 -0.5100305189104248 -0.5067956130589447 -0.5067956130589447 -0.5067956130589447 -0.5067956130589447 
-0.5034786979495245 -0.5034786979495245 -0.5034786979495245 -0.5034786979495245 -0.5000801327111271 -0.5000801327111271 -0.5000801327111271 -0.5000801327111271 -0.4966003141401153 
-0.4966003141401153 -0.4966003141401153 -0.4966003141401153 -0.4930396788200481 -0.4930396788200481 -0.4930396788200481 -0.4930396788200481 -0.4893987048366797 -0.4893987048366797 
-0.4893987048366797 -0.4893987048366797 -0.4856779131001651 -0.4856779131001651 -0.4856779131001651 -0.4856779131001651 -0.4818778682861992 -0.4818778682861992 -0.4818778682861992 
-0.4818778682861992 -0.4779991794076597 -0.4779991794076597 -0.4779991794076597 -0.4779991794076597 -0.4740425000279592 -0.4740425000279592 -0.4740425000279592 -0.4740425000279592 
-0.4700085281262901 -0.4700085281262901 -0.4700085281262901 -0.4700085281262901 -0.4658980056225495 -0.4658980056225495 -0.4658980056225495 -0.4658980056225495 -0.4617117175644462 
-0.4617117175644462 -0.4617117175644462 -0.4617117175644462 -0.4574504909691367 -0.4574504909691367 -0.4574504909691367 -0.4574504909691367 -0.4531151932920728 -0.4531151932920728 
-0.4531151932920728 -0.4531151932920728 -0.4487067304597579 -0.4487067304597579 -0.4487067304597579 -0.4487067304597579 -0.4442260443376219 -0.4442260443376219 -0.4442260443376219 
-0.4442260443376219 -0.439674109386909 -0.439674109386909 -0.439674109386909 -0.439674109386909 -0.4350519280561977 -0.4350519280561977 -0.4350519280561977 -0.4350519280561977 
-0.4303605240864313 -0.4303605240864313 -0.4303605240864313 -0.4303605240864313 -0.4256009322674643 -0.4256009322674643 -0.4256009322674643 -0.4256009322674643 -0.4207741820726683 
-0.4207741820726683 -0.4207741820726683 -0.4207741820726683 -0.4158812706854137 -0.4158812706854137 -0.4158812706854137 -0.4158812706854137 -0.4109231176663026 -0.4109231176663026 
-0.4109231176663026 -0.4109231176663026 -0.4059004879849262 -0.4059004879849262 -0.4059004879849262 -0.4059004879849262 -0.4008138608756173 -0.4008138608756173 -0.4008138608756173 
-0.4008138608756173 -0.3956632065944519 -0.3956632065944519 -0.3956632065944519 -0.3956632065944519 -0.3904476078788018 -0.3904476078788018 -0.3904476078788018 -0.3904476078788018 
-0.3851646218282782 -0.3851646218282782 -0.3851646218282782 -0.3851646218282782 -0.3798092118937455 -0.3798092118937455 -0.3798092118937455 -0.3798092118937455 -0.3743719746779116 
-0.3743719746779116 -0.3743719746779116 -0.3743719746779116 -0.3688362212986557 -0.3688362212986557 -0.3688362212986557 -0.3688362212986557 -0.3631732953279211 -0.3631732953279211 
-0.3631732953279211 -0.3631732953279211 -0.3573350753131249 -0.3573350753131249 -0.3573350753131249 -0.3573350753131249 -0.351242041430872 -0.351242041430872 -0.351242041430872 
-0.351242041430872 -0.3447647146199085 -0.3447647146199085 -0.3447647146199085 -0.3447647146199085 -0.3376951019377974 -0.3376951019377974 -0.3376951019377974 -0.3376951019377974 
-0.3297033529291195 -0.3297033529291195 -0.3297033529291195 -0.3297033529291195 -0.3202725852152675 -0.3202725852152675 -0.3202725852152675 -0.3202725852152675 -0.308601097780466 
-0.308601097780466 -0.308601097780466 -0.308601097780466 -0.2934537896779513 -0.2934537896779513 -0.2934537896779513 -0.2934537896779513 -0.2729273983550128 -0.2729273983550128 
-0.2729273983550128 -0.2729273983550128 -0.2440453479117307 -0.2440453479117307 -0.2440453479117307 -0.2440453479117307 -0.2018861998681549 -0.2018861998681549 -0.2018861998681549 
-0.2018861998681549 -0.1369748498695753 -0.1369748498695753 -0.1369748498695753 -0.1369748498695753 -0.03791108919652922 -0.03791108919652922 -0.03791108919652922 -0.03791108919652922 
0.103224245328354 0.103224245328354 0.103224245328354 0.103224245328354 0.1790918158283333 0.1790918158283333 0.1790918158283333 0.1790918158283333 0.229992193477381 
0.229992193477381 0.229992193477381 0.229992193477381 0.2652277573096627 0.2652277573096627 0.2652277573096627 0.2652277573096627 0.2901416333170687 0.2901416333170687 
0.2901416333170687 0.2901416333170687 0.3082917057646654 0.3082917057646654 0.3082917057646654 0.3082917057646654 0.3220022034838375 0.3220022034838375 0.3220022034838375 
0.3220022034838375 0.3328039296988775 0.3328039296988775 0.3328039296988775 0.3328039296988775 0.3417074148810822 0.3417074148810822 0.3417074148810822 0.3417074148810822 
0.3493767394366777 0.3493767394366777 0.3493767394366777 0.3493767394366777 0.3562445374544765 0.3562445374544765 0.3562445374544765 0.3562445374544765 0.3625895964869166 
0.3625895964869166 0.3625895964869166 0.3625895964869166 0.3685894136977061 0.3685894136977061 0.3685894136977061 0.3685894136977061 0.3743555698268883 0.3743555698268883 
0.3743555698268883 0.3743555698268883 0.3799572755737999 0.3799572755737999 0.3799572755737999 0.3799572755737999 0.3854368463700185 0.3854368463700185 0.3854368463700185 
0.3854368463700185 0.3908197450289124 0.3908197450289124 0.3908197450289124 0.3908197450289124 0.3961209306717093 0.3961209306717093 0.3961209306717093 0.3961209306717093 
0.4013489128701531 0.4013489128701531 0.4013489128701531 0.4013489128701531 0.406508288801132 0.406508288801132 0.406508288801132 0.406508288801132 0.411601303683683 
0.411601303683683 0.411601303683683 0.411601303683683 0.4166288025561907 0.4166288025561907 0.4166288025561907 0.4166288025561907 0.4215908063092321 0.4215908063092321 
0.4215908063092321 0.4215908063092321 0.4264868579141259 0.4264868579141259 0.4264868579141259 0.4264868579141259 0.4313162293611293 0.4313162293611293 0.4313162293611293 
0.4313162293611293 0.4360780448827682 0.4360780448827682 0.4360780448827682 0.4360780448827682 0.4407713542555457 0.4407713542555457 0.4407713542555457 0.4407713542555457 
0.445395176538064 0.445395176538064 0.445395176538064 0.445395176538064 0.4499485264010313 0.4499485264010313 0.4499485264010313 0.4499485264010313 0.454430430244722 
0.454430430244722 0.454430430244722 0.454430430244722 0.4588399363273101 0.4588399363273101 0.4588399363273101 0.4588399363273101 0.4631761213615536 0.4631761213615536 
0.4631761213615536 0.4631761213615536 0.4674380949964348 0.4674380949964348 0.4674380949964348 0.4674380949964348 0.4716250029915304 0.4716250029915304 0.4716250029915304 
0.4716250029915304 0.475736029538409 0.475736029538409 0.475736029538409 0.475736029538409 0.479770398979681 0.479770398979681 0.479770398979681 0.479770398979681 
0.483727377059828 0.483727377059828 0.483727377059828 0.483727377059828 0.4876062717760695 0.4876062717760695 0.4876062717760695 0.4876062717760695 0.4914064338603649 
0.4914064338603649 0.4914064338603649 0.4914064338603649 0.4951272569033972 0.4951272569033972 0.4951272569033972 0.4951272569033972 0.4987681771201691 0.4987681771201691 
0.4987681771201691 0.4987681771201691 0.5023286727510121 0.5023286727510121 0.5023286727510121 0.5023286727510121 0.5058082630887714 0.5058082630887714 0.5058082630887714 
0.5058082630887714 0.509206507121293 0.509206507121293 0.509206507121293 0.509206507121293 0.5125230017774114 0.5125230017774114 0.5125230017774114 0.5125230017774114 
0.5157573797637934 0.5157573797637934 0.5157573797637934 0.5157573797637934 0.5189093069790012 0.5189093069790012 0.5189093069790012 0.5189093069790012 0.5219784794897251 
0.5219784794897251 0.5219784794897251 0.5219784794897251 0.524964620052125 0.524964620052125 0.524964620052125 0.524964620052125 0.5306868055848626 0.5306868055848626 
0.5306868055848626 0.5306868055848626 0.5335884886146638 0.5335884886146638 0.5335884886146638 0.5335884886146638 0.5364064566492019 0.5364064566492019 0.5364064566492019 
0.5364064566492019 0.5391404654823063 0.5391404654823063 0.5391404654823063 0.5391404654823063 0.541790276120621 0.541790276120621 0.541790276120621 0.541790276120621 
0.5443556484330356 0.5443556484330356 0.5443556484330356 0.5443556484330356 0.5468363340149512 0.5468363340149512 0.5468363340149512 0.5468363340149512 0.5492320679968598 
0.5492320679968598 0.5492320679968598 0.5492320679968598 0.5515425591458688 0.5515425591458688 0.5515425591458688 0.5515425591458688 0.5537674766437171 0.5537674766437171 
0.5537674766437171 0.5537674766437171 0.5559064295834124 0.5559064295834124 0.5559064295834124 0.5559064295834124 0.5579589298164915 0.5579589298164915 0.5579589298164915 
0.5579589298164915 0.5599243168942456 0.5599243168942456 0.5599243168942456 0.5599243168942456 0.5618015990022509 0.5618015990022509 0.5618015990022509 0.5618015990022509 
0.5635891143957824 0.5635891143957824 0.5635891143957824 0.5635891143957824 0.5652838243813085 0.5652838243813085 0.5652838243813085 0.5652838243813085 0.5668798804958179 
0.5668798804958179 0.5668798804958179 0.5668798804958179 0.5683658195241841 0.5683658195241841 0.5683658195241841 0.5683658195241841 0.5697192672385205 0.5697192672385205 
0.5697192672385205 0.5697192672385205 0.5708972937603947 0.5708972937603947 0.5708972937603947 0.5708972937603947 0.5718194576514363 0.5718194576514363 0.5718194576514363 
0.5718194576514363 0.5723389847836199 0.5723389847836199 0.5723389847836199 0.5723389847836199 0.5721955131388347 0.5721955131388347 0.5721955131388347 0.5721955131388347 
0.5709425477693151 0.5709425477693151 0.5709425477693151 0.5709425477693151 0.5678378058587168 0.5678378058587168 0.5678378058587168 0.5678378058587168 0.561686015758912 
0.561686015758912 0.561686015758912 0.561686015758912 0.550629364867754 0.550629364867754 0.550629364867754 0.550629364867754 0.5318993561678416 0.5318993561678416 
0.5318993561678416 0.5318993561678416 0.5016013117072128 0.5016013117072128 0.5016013117072128 0.5016013117072128 0.454754487791361 0.454754487791361 0.454754487791361 
0.454754487791361 0.3861569223122858 0.3861569223122858 0.3861569223122858 0.3861569223122858 0.2931560944431825 0.2931560944431825 0.2931560944431825 0.2931560944431825 
0.1814411652431016 0.1814411652431016 0.1814411652431016 0.1814411652431016 0.07421352520881491 0.07421352520881491 0.07421352520881491 0.07421352520881491 0.01930996607363867 
0.01930996607363867 0.01930996607363867 0.01930996607363867 0.01255041391460207 0.01255041391460207 0.01255041391460207 0.01255041391460207 0.01243591723012272 0.01243591723012272 
0.01243591723012272 0.01243591723012272 0.0125023621062482 0.0125023621062482 0.0125023621062482 0.0125023621062482 0.0125675435433848 0.0125675435433848 0.0125675435433848 
0.0125675435433848 0.0126280423143932 0.0126280423143932 0.0126280423143932 0.0126280423143932 0.01268394393223604 0.01268394393223604 0.01268394393223604 0.01268394393223604 
0.01273538813636067 0.01273538813636067 0.01273538813636067 0.01273538813636067 0.01278250034903185 0.01278250034903185 0.01278250034903185 0.01278250034903185 0.01282539109053571 
0.01282539109053571 0.01282539109053571 0.01282539109053571 0.01286415671520634 0.01286415671520634 0.01286415671520634 0.01286415671520634 0.01289888011208125 0.01289888011208125 
0.01289888011208125 0.01289888011208125 0.01292963155316084 0.01292963155316084 0.01292963155316084 0.01292963155316084 0.01295647078298046 0.01295647078298046 0.01295647078298046 
0.01295647078298046 0.01297945579132807 0.01297945579132807 0.01297945579132807 0.01297945579132807 0.01299868291531186 0.01299868291531186 0.01299868291531186 0.01299868291531186 
0.01301331546490399 0.01301331546490399 0.01301331546490399 0.01301331546490399 0.01302274792015698 0.01302274792015698 0.01302274792015698 0.01302274792015698 0.01302757214585794 
0.01302757214585794 0.01302757214585794 0.01302757214585794 0.0130282308731756 0.0130282308731756 0.0130282308731756 0.0130282308731756 0.01302492375967621 0.01302492375967621 
0.01302492375967621 0.01302492375967621 0.01301770789017434 0.01301770789017434 0.01301770789017434 0.01301770789017434 0.01300657167628487 0.01300657167628487 0.01300657167628487 
0.01300657167628487 0.01299146990481434 0.01299146990481434 0.01299146990481434 0.01299146990481434 0.01297233704030029 0.01297233704030029 0.01297233704030029 0.01297233704030029 
0.01294909137319363 0.01294909137319363 0.01294909137319363 0.01294909137319363 0.01292163578474346 0.01292163578474346 0.01292163578474346 0.01292163578474346 0.01288985730887961 
0.01288985730887961 0.01288985730887961 0.01288985730887961 0.01285362621645827 0.01285362621645827 0.01285362621645827 0.01285362621645827 0.01281279483433696 0.01281279483433696 
0.01281279483433696 0.01281279483433696 0.01276719613344933 0.01276719613344933 0.01276719613344933 0.01276719613344933 0.0127166287195994 0.0127166287195994 0.0127166287195994 
0.0127166287195994 0.01260799688967365 0.01260799688967365 0.01260799688967365 0.01260799688967365 0.001238750403475195 0.001238750403475195 0.001238750403475195 0.001238750403475195 
-0.08514995374378326 -0.08514995374378326 -0.08514995374378326 -0.08514995374378326 -0.2067760724686152 -0.2067760724686152 -0.2067760724686152 -0.2067760724686152 -0.3162853463732266 
-0.3162853463732266 -0.3162853463732266 -0.3162853463732266 -0.4005784827153039 -0.4005784827153039 -0.4005784827153039 -0.4005784827153039 -0.4600601341086322 -0.4600601341086322 
-0.4600601341086322 -0.4600601341086322 -0.4996527452256934 -0.4996527452256934 -0.4996527452256934 -0.4996527452256934 -0.5248199436797589 -0.5248199436797589 -0.5248199436797589 
-0.5248199436797589 -0.5401440071026538 -0.5401440071026538 -0.5401440071026538 -0.5401440071026538 -0.5490344060750761 -0.5490344060750761 -0.5490344060750761 -0.5490344060750761 
-0.5538578638005461 -0.5538578638005461 -0.5538578638005461 -0.5538578638005461 -0.5561791017887739 -0.5561791017887739 -0.5561791017887739 -0.5561791017887739 -0.5569924783124615 
-0.5569924783124615 -0.5569924783124615 -0.5569924783124615 -0.5569078733180678 -0.5569078733180678 -0.5569078733180678 -0.5569078733180678 -0.5562872815284461 -0.5562872815284461 
-0.5562872815284461 -0.5562872815284461 -0.555338295192169 -0.555338295192169 -0.555338295192169 -0.555338295192169 -0.5541759548264196 -0.5541759548264196 -0.5541759548264196 
-0.5541759548264196 -0.5528621560503528 -0.5528621560503528 -0.5528621560503528 -0.5528621560503528 -0.5514292876428122 -0.5514292876428122 -0.5514292876428122 -0.5514292876428122 
-0.5498939026058449 -0.5498939026058449 -0.5498939026058449 -0.5498939026058449 -0.5482643380597785 -0.5482643380597785 -0.5482643380597785 -0.5482643380597785 -0.5465448019703845 
-0.5465448019703845 -0.5465448019703845 -0.5465448019703845 -0.5447374814209003 -0.5447374814209003 -0.5447374814209003 -0.5447374814209003 -0.5428435895310229 -0.5428435895310229 
-0.5428435895310229 -0.5428435895310229 -0.5408638673817956 -0.5408638673817956 -0.5408638673817956 -0.5408638673817956 -0.538798818167579 -0.538798818167579 -0.538798818167579 
-0.538798818167579 -0.5366488154077351 -0.5366488154077351 -0.5366488154077351 -0.5366488154077351 -0.5344141543348645 -0.5344141543348645 -0.5344141543348645 -0.5344141543348645 
-0.5320950785291347 -0.5320950785291347 -0.5320950785291347 -0.5320950785291347 -0.5296917959698789 -0.5296917959698789 -0.5296917959698789 -0.5296917959698789 -0.5272044904792208 
-0.5272044904792208 -0.5272044904792208 -0.5272044904792208 -0.5246333309754349 -0.5246333309754349 -0.5246333309754349 -0.5246333309754349 -0.5219784794897249 -0.5219784794897249 
-0.5219784794897249 -0.5219784794897249 -0.5192400983265516 -0.5192400983265516 -0.5192400983265516 -0.5192400983265516 -0.5164183565313034 -0.5164183565313034 -0.5164183565313034 
-0.5164183565313034 -0.5135134357482138 -0.5135134357482138 -0.5135134357482138 -0.5135134357482138 -0.5105255355194546 -0.5105255355194546 -0.5105255355194546 -0.5105255355194546 
-0.5074548780616464 -0.5074548780616464 -0.5074548780616464 -0.5074548780616464 -0.5043017125477064 -0.5043017125477064 -0.5043017125477064 -0.5043017125477064 -0.5010663189163903 
-0.5010663189163903 -0.5010663189163903 -0.5010663189163903 -0.4977490112278865 -0.4977490112278865 -0.4977490112278865 -0.4977490112278865 -0.4943501405809235 -0.4943501405809235 
-0.4943501405809235 -0.4943501405809235 -0.4908700976048333 -0.4908700976048333 -0.4908700976048333 -0.4908700976048333 -0.4873093145387047 -0.4873093145387047 -0.4873093145387047 
-0.4873093145387047 -0.4836682669090656 -0.4836682669090656 -0.4836682669090656 -0.4836682669090656 -0.4799474748172815 -0.4799474748172815 -0.4799474748172815 -0.4799474748172815 
-0.476147503847985 -0.476147503847985 -0.476147503847985 -0.476147503847985 -0.4722689656101675 -0.4722689656101675 -0.4722689656101675 -0.4722689656101675 -0.4683125179229398 
-0.4683125179229398 -0.4683125179229398 -0.4683125179229398 -0.4642788646580921 -0.4642788646580921 -0.4642788646580921 -0.4642788646580921 -0.4601687552510748 -0.4601687552510748 
-0.4601687552510748 -0.4601687552510748 -0.455982983890116 -0.455982983890116 -0.455982983890116 -0.455982983890116 -0.451722388388645 -0.451722388388645 -0.451722388388645 
-0.451722388388645 -0.4473878487366835 -0.4473878487366835 -0.4473878487366835 -0.4473878487366835 -0.4429802853083271 -0.4429802853083271 -0.4429802853083271 -0.4429802853083271 
-0.4385006566674746 -0.4385006566674746 -0.4385006566674746 -0.4385006566674746 -0.4339499568494152 -0.4339499568494152 -0.4339499568494152 -0.4339499568494152 -0.4293292118783322 
-0.4293292118783322 -0.4293292118783322 -0.4293292118783322 -0.4246394750688086 -0.4246394750688086 -0.4246394750688086 -0.4246394750688086 -0.4198818202804025 -0.4198818202804025 
-0.4198818202804025 -0.4198818202804025 -0.4150573316218109 -0.4150573316218109 -0.4150573316218109 -0.4150573316218109 -0.4101670869168526 -0.4101670869168526 -0.4101670869168526 
-0.4101670869168526 -0.405212130175298 -0.405212130175298 -0.405212130175298 -0.405212130175298 -0.4001934247260258 -0.4001934247260258 -0.4001934247260258 -0.4001934247260258 
-0.3951117725109768 -0.3951117725109768 -0.3951117725109768 -0.3951117725109768 -0.3899676745574753 -0.3899676745574753 -0.3899676745574753 -0.3899676745574753 -0.384761089987929 
-0.384761089987929 -0.384761089987929 -0.384761089987929 -0.3794910214876542 -0.3794910214876542 -0.3794910214876542 -0.3794910214876542 -0.3741548066166376 -0.3741548066166376 
-0.3741548066166376 -0.3741548066166376 -0.3687469152313144 -0.3687469152313144 -0.3687469152313144 -0.3687469152313144 -0.3632569257071028 -0.3632569257071028 -0.3632569257071028 
-0.3632569257071028 -0.3576661585810395 -0.3576661585810395 -0.3576661585810395 -0.3576661585810395 -0.3519422185756361 -0.3519422185756361 -0.3519422185756361 -0.3519422185756361 
-0.346030086860621 -0.346030086860621 -0.346030086860621 -0.346030086860621 -0.3398378546865829 -0.3398378546865829 -0.3398378546865829 -0.3398378546865829 -0.3332142714219506 
-0.3332142714219506 -0.3332142714219506 -0.3332142714219506 -0.3259138517835516 -0.3259138517835516 -0.3259138517835516 -0.3259138517835516 -0.3175433610564534 -0.3175433610564534 
-0.3175433610564534 -0.3175433610564534 -0.3074804536174094 -0.3074804536174094 -0.3074804536174094 -0.3074804536174094 -0.2947499244871431 -0.2947499244871431 -0.2947499244871431 
-0.2947499244871431 -0.2778322940826629 -0.2778322940826629 -0.2778322940826629 -0.2778322940826629 -0.2543556185524924 -0.2543556185524924 -0.2543556185524924 -0.2543556185524924 
-0.2205786736311032 -0.2205786736311032 -0.2205786736311032 -0.2205786736311032 -0.1707277247441246 -0.1707277247441246 -0.1707277247441246 -0.1707277247441246 -0.09524961660233384 
-0.09524961660233384 -0.09524961660233384 -0.09524961660233384 0.04930415097824379 0.04930415097824379 0.04930415097824379 0.04930415097824379 0.1450426897446052 0.1450426897446052 
0.1450426897446052 0.1450426897446052 0.2103392836072037 0.2103392836072037 0.2103392836072037 0.2103392836072037 0.2539340169843601 0.2539340169843601 0.2539340169843601 
0.2539340169843601 0.2843300991836065 0.2843300991836065 0.2843300991836065 0.2843300991836065 0.3062154230668991 0.3062154230668991 0.3062154230668991 0.3062154230668991 
0.3224853114024657 0.3224853114024657 0.3224853114024657 0.3224853114024657 0.3350327765408795 0.3350327765408795 0.3350327765408795 0.3350327765408795 0.3451168260322435 
0.3451168260322435 0.3451168260322435 0.3451168260322435 0.3535765133367113 0.3535765133367113 0.3535765133367113 0.3535765133367113 0.3609680918582412 0.3609680918582412 
0.3609680918582412 0.3609680918582412 0.3676570249767084 0.3676570249767084 0.3676570249767084 0.3676570249767084 0.3738808210055765 0.3738808210055765 0.3738808210055765 
0.3738808210055765 0.3797920145807004 0.3797920145807004 0.3797920145807004 0.3797920145807004 0.3854873594990207 0.3854873594990207 0.3854873594990207 0.3854873594990207 
0.3910274212034864 0.3910274212034864 0.3910274212034864 0.3910274212034864 0.3964495938545854 0.3964495938545854 0.3964495938545854 0.3964495938545854 0.4017765848484416 
0.4017765848484416 0.4017765848484416 0.4017765848484416 0.4070218477538746 0.4070218477538746 0.4070218477538746 0.4070218477538746 0.4121931041862351 0.4121931041862351 
0.4121931041862351 0.4121931041862351 0.417294559362635 0.417294559362635 0.417294559362635 0.417294559362635 0.4223282806197897 0.4223282806197897 0.4223282806197897 
0.4223282806197897 0.4272950482320901 0.4272950482320901 0.4272950482320901 0.4272950482320901 0.4321948766052715 0.4321948766052715 0.4321948766052715 0.4321948766052715 