Title = Quad200
FileType = Solution
Variables = q
Zone T = Quad200
ZoneType = FETriangle
Nodes = 160000
Elements = 80000
DataPacking = Block
StrandID = 9
SolutionTime = 0.8
0.473030030666746 0.473030030666746 0.473030030666746 0.473030030666746 0.4755625476345952 0.4755625476345952 0.4755625476345952 0.4755625476345952 0.4780218788341166 0.4780218788341166 
0.4780218788341166 0.4780218788341166 0.480408003570692 0.480408003570692 0.480408003570692 0.480408003570692 0.4827209200032143 0.4827209200032143 0.4827209200032143 
0.4827209200032143 0.4849606401564051 0.4849606401564051 0.4849606401564051 0.4849606401564051 0.4871271843486638 0.4871271843486638 0.4871271843486638 0.4871271843486638 
0.4892205747776144 0.4892205747776144 0.4892205747776144 0.4892205747776144 0.4912408276437432 0.4912408276437432 0.4912408276437432 0.4912408276437432 0.4931879423544241 
0.4931879423544241 0.4931879423544241 0.4931879423544241 0.495061884494846 0.495061884494846 0.495061884494846 0.495061884494846 0.4968625553322464 0.4968625553322464 
0.4968625553322464 0.4968625553322464 0.4985897327230471 0.4985897327230471 0.4985897327230471 0.4985897327230471 0.5002429531244901 0.5002429531244901 0.5002429531244901 
0.5002429531244901 0.5018212766335111 0.5018212766335111 0.5018212766335111 0.5018212766335111 0.5033228284818531 0.5033228284818531 0.5033228284818531 0.5033228284818531 
0.5047439297719521 0.5047439297719521 0.5047439297719521 0.5047439297719521 0.5060775026243616 0.5060775026243616 0.5060775026243616 0.5060775026243616 0.5073102429741078 
0.5073102429741078 0.5073102429741078 0.5073102429741078 0.508417780599033 0.508417780599033 0.508417780599033 0.508417780599033 0.5093566753141516 0.5093566753141516 
0.5093566753141516 0.5093566753141516 0.5100516262160304 0.5100516262160304 0.5100516262160304 0.5100516262160304 0.5103756795849067 0.5103756795849067 0.5103756795849067 
0.5103756795849067 0.510120891880423 0.510120891880423 0.510120891880423 0.510120891880423 0.5089575257026004 0.5089575257026004 0.5089575257026004 0.5089575257026004 
0.5063774203557655 0.5063774203557655 0.5063774203557655 0.5063774203557655 0.5016200936562505 0.5016200936562505 0.5016200936562505 0.5016200936562505 0.4935818677145641 
0.4935818677145641 0.4935818677145641 0.4935818677145641 0.480713494873001 0.480713494873001 0.480713494873001 0.480713494873001 0.4609241051742684 0.4609241051742684 
0.4609241051742684 0.4609241051742684 0.4315363590150908 0.4315363590150908 0.4315363590150908 0.4315363590150908 0.3893986618622752 0.3893986618622752 0.3893986618622752 
0.3893986618622752 0.3313965196589859 0.3313965196589859 0.3313965196589859 0.3313965196589859 0.255876980785993 0.255876980785993 0.255876980785993 0.255876980785993 
0.1658840228464518 0.1658840228464518 0.1658840228464518 0.1658840228464518 0.07517512860857679 0.07517512860857679 0.07517512860857679 0.07517512860857679 0.01664773037336824 
0.01664773037336824 0.01664773037336824 0.01664773037336824 0.005912447800479961 0.005912447800479961 0.005912447800479961 0.005912447800479961 0.005648897352482111 0.005648897352482111 
0.005648897352482111 0.005648897352482111 0.005676819990407964 0.005676819990407964 0.005676819990407964 0.005676819990407964 0.005706390880781829 0.005706390880781829 0.005706390880781829 
0.005706390880781829 0.005734049006209635 0.005734049006209635 0.005734049006209635 0.005734049006209635 0.005759795506434504 0.005759795506434504 0.005759795506434504 0.005759795506434504 
0.005783677589563615 0.005783677589563615 0.005783677589563615 0.005783677589563615 0.005805737061400797 0.005805737061400797 0.005805737061400797 0.005805737061400797 0.005826010061002911 
0.005826010061002911 0.005826010061002911 0.005826010061002911 0.005844529275579943 0.005844529275579943 0.005844529275579943 0.005844529275579943 0.005861333183670201 0.005861333183670201 
0.005861333183670201 0.005861333183670201 0.005876505198530555 0.005876505198530555 0.005876505198530555 0.005876505198530555 0.005890330504854715 0.005890330504854715 0.005890330504854715 
0.005890330504854715 0.005899870073198074 0.005899870073198074 0.005899870073198074 0.005899870073198074 0.005903989138806714 0.005903989138806714 0.005903989138806714 0.005903989138806714 
0.005905322227807483 0.005905322227807483 0.005905322227807483 0.005905322227807483 0.005904650917585208 0.005904650917585208 0.005904650917585208 0.005904650917585208 0.005902185895374095 
0.005902185895374095 0.005902185895374095 0.005902185895374095 0.00589796906266714 0.00589796906266714 0.00589796906266714 0.00589796906266714 0.005891992068219849 0.005891992068219849 
0.005891992068219849 0.005891992068219849 0.005884228780722195 0.005884228780722195 0.005884228780722195 0.005884228780722195 0.005874643494475956 0.005874643494475956 0.005874643494475956 
0.005874643494475956 0.005863192698454504 0.005863192698454504 0.005863192698454504 0.005863192698454504 0.0058498251634498 0.0058498251634498 0.0058498251634498 0.0058498251634498 
0.005834480996954047 0.005834480996954047 0.005834480996954047 0.005834480996954047 0.00581683485902248 0.00581683485902248 0.00581683485902248 0.00581683485902248 0.00522725469924404 
0.00522725469924404 0.00522725469924404 0.00522725469924404 -0.01954246554357034 -0.01954246554357034 -0.01954246554357034 -0.01954246554357034 -0.1009333663002362 -0.1009333663002362 
-0.1009333663002362 -0.1009333663002362 -0.1969769257496923 -0.1969769257496923 -0.1969769257496923 -0.1969769257496923 -0.28321233125826 -0.28321233125826 -0.28321233125826 
-0.28321233125826 -0.352069094798751 -0.352069094798751 -0.352069094798751 -0.352069094798751 -0.4034631941660141 -0.4034631941660141 -0.4034631941660141 -0.4034631941660141 
-0.4400914786279384 -0.4400914786279384 -0.4400914786279384 -0.4400914786279384 -0.4652488844304282 -0.4652488844304282 -0.4652488844304282 -0.4652488844304282 -0.4819470963592996 
-0.4819470963592996 -0.4819470963592996 -0.4819470963592996 -0.4926361330443392 -0.4926361330443392 -0.4926361330443392 -0.4926361330443392 -0.4991825378826272 -0.4991825378826272 
-0.4991825378826272 -0.4991825378826272 -0.5029453462747977 -0.5029453462747977 -0.5029453462747977 -0.5029453462747977 -0.5048788284640184 -0.5048788284640184 -0.5048788284640184 
-0.5048788284640184 -0.5056317685679663 -0.5056317685679663 -0.5056317685679663 -0.5056317685679663 -0.505631982036916 -0.505631982036916 -0.505631982036916 -0.505631982036916 
-0.5051534795073687 -0.5051534795073687 -0.5051534795073687 -0.5051534795073687 -0.5043664798847661 -0.5043664798847661 -0.5043664798847661 -0.5043664798847661 -0.503373360843504 
-0.503373360843504 -0.503373360843504 -0.503373360843504 -0.5022339726066956 -0.5022339726066956 -0.5022339726066956 -0.5022339726066956 -0.5009823187589142 -0.5009823187589142 
-0.5009823187589142 -0.5009823187589142 -0.4996371779002238 -0.4996371779002238 -0.4996371779002238 -0.4996371779002238 -0.4982086388744928 -0.4982086388744928 -0.4982086388744928 
-0.4982086388744928 -0.4967019834398788 -0.4967019834398788 -0.4967019834398788 -0.4967019834398788 -0.4951199124551032 -0.4951199124551032 -0.4951199124551032 -0.4951199124551032 
-0.493463777862494 -0.493463777862494 -0.493463777862494 -0.493463777862494 -0.4917342413372941 -0.4917342413372941 -0.4917342413372941 -0.4917342413372941 -0.4899316153268191 
-0.4899316153268191 -0.4899316153268191 -0.4899316153268191 -0.488056035073077 -0.488056035073077 -0.488056035073077 -0.488056035073077 -0.4861075442044057 -0.4861075442044057 
-0.4861075442044057 -0.4861075442044057 -0.4840861377995714 -0.4840861377995714 -0.4840861377995714 -0.4840861377995714 -0.4819917852471168 -0.4819917852471168 -0.4819917852471168 
-0.4819917852471168 -0.4798244437555118 -0.4798244437555118 -0.4798244437555118 -0.4798244437555118 -0.4775840675650359 -0.4775840675650359 -0.4775840675650359 -0.4775840675650359 
-0.4752706151131874 -0.4752706151131874 -0.4752706151131874 -0.4752706151131874 -0.4728840551192327 -0.4728840551192327 -0.4728840551192327 -0.4728840551192327 -0.4704243719897953 
-0.4704243719897953 -0.4704243719897953 -0.4704243719897953 -0.4678915707109704 -0.4678915707109704 -0.4678915707109704 -0.4678915707109704 -0.4652856812968071 -0.4652856812968071 
-0.4652856812968071 -0.4652856812968071 -0.4626067628259559 -0.4626067628259559 -0.4626067628259559 -0.4626067628259559 -0.4598549070828677 -0.4598549070828677 -0.4598549070828677 
-0.4598549070828677 -0.4570302418132156 -0.4570302418132156 -0.4570302418132156 -0.4570302418132156 -0.4541329335999514 -0.4541329335999514 -0.4541329335999514 -0.4541329335999514 
-0.45116319036471 -0.45116319036471 -0.45116319036471 -0.45116319036471 -0.4481212634984303 -0.4481212634984303 -0.4481212634984303 -0.4481212634984303 -0.4450074496248317 
-0.4450074496248317 -0.4450074496248317 -0.4450074496248317 -0.4418220920005736 -0.4418220920005736 -0.4418220920005736 -0.4418220920005736 -0.4385655815564553 -0.4385655815564553 
-0.4385655815564553 -0.4385655815564553 -0.4352383575847223 -0.4352383575847223 -0.4352383575847223 -0.4352383575847223 -0.4318409080782666 -0.4318409080782666 -0.4318409080782666 
-0.4318409080782666 -0.4283737697279767 -0.4283737697279767 -0.4283737697279767 -0.4283737697279767 -0.4248375275842967 -0.4248375275842967 -0.4248375275842967 -0.4248375275842967 
-0.4212328143874711 -0.4212328143874711 -0.4212328143874711 -0.4212328143874711 -0.4175603095668842 -0.4175603095668842 -0.4175603095668842 -0.4175603095668842 -0.4138207379011372 
-0.4138207379011372 -0.4138207379011372 -0.4138207379011372 -0.4100148678138933 -0.4100148678138933 -0.4100148678138933 -0.4100148678138933 -0.4061435092495999 -0.4061435092495999 
-0.4061435092495999 -0.4061435092495999 -0.4022075110180903 -0.4022075110180903 -0.4022075110180903 -0.4022075110180903 -0.3982077573998806 -0.3982077573998806 -0.3982077573998806 
-0.3982077573998806 -0.3941451636350362 -0.3941451636350362 -0.3941451636350362 -0.3941451636350362 -0.390020669627557 -0.390020669627557 -0.390020669627557 -0.390020669627557 
-0.3858352307005809 -0.3858352307005809 -0.3858352307005809 -0.3858352307005809 -0.3815898033968738 -0.3815898033968738 -0.3815898033968738 -0.3815898033968738 -0.3772853229073039 
-0.3772853229073039 -0.3772853229073039 -0.3772853229073039 -0.3729226663599217 -0.3729226663599217 -0.3729226663599217 -0.3729226663599217 -0.368502592325561 -0.368502592325561 
-0.368502592325561 -0.368502592325561 -0.3640256405621231 -0.3640256405621231 -0.3640256405621231 -0.3640256405621231 -0.3594919657771892 -0.3594919657771892 -0.3594919657771892 
-0.3594919657771892 -0.3549010628050752 -0.3549010628050752 -0.3549010628050752 -0.3549010628050752 -0.3502513146887206 -0.3502513146887206 -0.3502513146887206 -0.3502513146887206 
-0.3455392546844732 -0.3455392546844732 -0.3455392546844732 -0.3455392546844732 -0.3407583707430827 -0.3407583707430827 -0.3407583707430827 -0.3407583707430827 -0.3358971857246151 
-0.3358971857246151 -0.3358971857246151 -0.3358971857246151 -0.3309362026229937 -0.3309362026229937 -0.3309362026229937 -0.3309362026229937 -0.3258431661966892 -0.3258431661966892 
-0.3258431661966892 -0.3258431661966892 -0.3205657708349516 -0.3205657708349516 -0.3205657708349516 -0.3205657708349516 -0.3150204236240136 -0.3150204236240136 -0.3150204236240136 
-0.3150204236240136 -0.309075382064324 -0.309075382064324 -0.309075382064324 -0.309075382064324 -0.3025256681139226 -0.3025256681139226 -0.3025256681139226 -0.3025256681139226 
-0.2950561276045222 -0.2950561276045222 -0.2950561276045222 -0.2950561276045222 -0.2861872068848932 -0.2861872068848932 -0.2861872068848932 -0.2861872068848932 -0.2751946879326105 
-0.2751946879326105 -0.2751946879326105 -0.2751946879326105 -0.2609873006518678 -0.2609873006518678 -0.2609873006518678 -0.2609873006518678 -0.2419077365767079 -0.2419077365767079 
-0.2419077365767079 -0.2419077365767079 -0.2153689329292242 -0.2153689329292242 -0.2153689329292242 -0.2153689329292242 -0.177053080868698 -0.177053080868698 -0.177053080868698 
-0.177053080868698 -0.1189480855293546 -0.1189480855293546 -0.1189480855293546 -0.1189480855293546 -0.02866095740673555 -0.02866095740673555 -0.02866095740673555 -0.02866095740673555 
0.09327356795832453 0.09327356795832453 0.09327356795832453 0.09327356795832453 0.161495851800474 0.161495851800474 0.161495851800474 0.161495851800474 0.2059147292938633 
0.2059147292938633 0.2059147292938633 0.2059147292938633 0.2368482890912248 0.2368482890912248 0.2368482890912248 0.2368482890912248 0.2590646851231082 0.2590646851231082 
0.2590646851231082 0.2590646851231082 0.2754893777432925 0.2754893777432925 0.2754893777432925 0.2754893777432925 0.2880349925323755 0.2880349925323755 0.2880349925323755 
0.2880349925323755 0.2979805824676233 0.2979805824676233 0.2979805824676233 0.2979805824676233 0.3061881635904563 0.3061881635904563 0.3061881635904563 0.3061881635904563 
0.3132380060484057 0.3132380060484057 0.3132380060484057 0.3132380060484057 0.3195181923469375 0.3195181923469375 0.3195181923469375 0.3195181923469375 0.3252858109011105 
0.3252858109011105 0.3252858109011105 0.3252858109011105 0.3307092787096803 0.3307092787096803 0.3307092787096803 0.3307092787096803 0.3358975906421525 0.3358975906421525 
0.3358975906421525 0.3358975906421525 0.3409203752551597 0.3409203752551597 0.3409203752551597 0.3409203752551597 0.3458215090437703 0.3458215090437703 0.3458215090437703 
0.3458215090437703 0.3506282267648761 0.3506282267648761 0.3506282267648761 0.3506282267648761 0.3553570661106286 0.3553570661106286 0.3553570661106286 0.3553570661106286 
0.3600178064124205 0.3600178064124205 0.3600178064124205 0.3600178064124205 0.3646160049350129 0.3646160049350129 0.3646160049350129 0.3646160049350129 0.3691546058536335 
0.3691546058536335 0.3691546058536335 0.3691546058536335 0.3736349518817871 0.3736349518817871 0.3736349518817871 0.3736349518817871 0.3780574149609482 0.3780574149609482 
0.3780574149609482 0.3780574149609482 0.3824217864505436 0.3824217864505436 0.3824217864505436 0.3824217864505436 0.3867275169545766 0.3867275169545766 0.3867275169545766 
0.3867275169545766 0.3909738630066382 0.3909738630066382 0.3909738630066382 0.3909738630066382 0.3951599765568178 0.3951599765568178 0.3951599765568178 0.3951599765568178 
0.3992849596102923 0.3992849596102923 0.3992849596102923 0.3992849596102923 0.4033478977805957 0.4033478977805957 0.4033478977805957 0.4033478977805957 0.4073478811541817 
0.4073478811541817 0.4073478811541817 0.4073478811541817 0.411284017542598 0.411284017542598 0.411284017542598 0.411284017542598 0.4151554411635304 0.4151554411635304 
0.4151554411635304 0.4151554411635304 0.4189613185557295 0.4189613185557295 0.4189613185557295 0.4189613185557295 0.4227008527881679 0.4227008527881679 0.4227008527881679 
0.4227008527881679 0.4263732865789127 0.4263732865789127 0.4263732865789127 0.4263732865789127 0.4299779046756321 0.4299779046756321 0.4299779046756321 0.4299779046756321 
0.4335140356947869 0.4335140356947869 0.4335140356947869 0.4335140356947869 0.4369810535266214 0.4369810535266214 0.4369810535266214 0.4369810535266214 0.440378378361161 
0.440378378361161 0.440378378361161 0.440378378361161 0.4437054773613638 0.4437054773613638 0.4437054773613638 0.4437054773613638 0.4469618649933483 0.4469618649933483 
0.4469618649933483 0.4469618649933483 0.4501471030151233 0.4501471030151233 0.4501471030151233 0.4501471030151233 0.453260800121069 0.453260800121069 0.453260800121069 
0.453260800121069 0.4563026112375821 0.4563026112375821 0.4563026112375821 0.4563026112375821 0.4592722364648263 0.4592722364648263 0.4592722364648263 0.4592722364648263 
0.4621694196595968 0.4621694196595968 0.4621694196595968 0.4621694196595968 0.4649939466545893 0.4649939466545893 0.4649939466545893 0.4649939466545893 0.4677456431095617 
0.4677456431095617 0.4677456431095617 0.4677456431095617 0.4704243719897954 0.4704243719897954 0.4704243719897954 0.4704243719897954 0.4755625476345949 0.4755625476345949 
0.4755625476345949 0.4755625476345949 0.4781679199494612 0.4781679199494612 0.4781679199494612 0.4781679199494612 0.4807000880167793 0.4807000880167793 0.4807000880167793 
0.4807000880167793 0.4831589935901096 0.4831589935901096 0.4831589935901096 0.4831589935901096 0.485544600087697 0.485544600087697 0.485544600087697 0.485544600087697 
0.487856888004056 0.487856888004056 0.487856888004056 0.487856888004056 0.4900958497971765 0.4900958497971765 0.4900958497971765 0.4900958497971765 0.4922614840843343 
0.4922614840843343 0.4922614840843343 0.4922614840843343 0.4943537887479495 0.4943537887479495 0.4943537887479495 0.4943537887479495 0.4963727520091519 0.4963727520091519 
0.4963727520091519 0.4963727520091519 0.4983183393029574 0.4983183393029574 0.4983183393029574 0.4983183393029574 0.5001904711578236 0.5001904711578236 0.5001904711578236 
0.5001904711578236 0.5019889818819548 0.5019889818819548 0.5019889818819548 0.5019889818819548 0.5037135382800382 0.5037135382800382 0.5037135382800382 0.5037135382800382 
0.5053634778467215 0.5053634778467215 0.5053634778467215 0.5053634778467215 0.5069374905995077 0.5069374905995077 0.5069374905995077 0.5069374905995077 0.5084330086673607 
0.5084330086673607 0.5084330086673607 0.5084330086673607 0.5098450703544397 0.5098450703544397 0.5098450703544397 0.5098450703544397 0.5111642749579903 0.5111642749579903 
0.5111642749579903 0.5111642749579903 0.5123732238105346 0.5123732238105346 0.5123732238105346 0.5123732238105346 0.5134405347941551 0.5134405347941551 0.5134405347941551 
0.5134405347941551 0.5143111112094269 0.5143111112094269 0.5143111112094269 0.5143111112094269 0.5148908274496619 0.5148908274496619 0.5148908274496619 0.5148908274496619 
0.5150232011662869 0.5150232011662869 0.5150232011662869 0.5150232011662869 0.5144557937435927 0.5144557937435927 0.5144557937435927 0.5144557937435927 0.5127937089713572 
0.5127937089713572 0.5127937089713572 0.5127937089713572 0.5094361255509374 0.5094361255509374 0.5094361255509374 0.5094361255509374 0.5034954811047623 0.5034954811047623 
0.5034954811047623 0.5034954811047623 0.4937009375529605 0.4937009375529605 0.4937009375529605 0.4937009375529605 0.4782958085003576 0.4782958085003576 0.4782958085003576 
0.4782958085003576 0.4549565769948046 0.4549565769948046 0.4549565769948046 0.4549565769948046 0.4208032973504022 0.4208032973504022 0.4208032973504022 0.4208032973504022 
0.3726701809270277 0.3726701809270277 0.3726701809270277 0.3726701809270277 0.3080064907567777 0.3080064907567777 0.3080064907567777 0.3080064907567777 0.2269989454679437 
0.2269989454679437 0.2269989454679437 0.2269989454679437 0.13630646056779 0.13630646056779 0.13630646056779 0.13630646056779 0.0546443149771712 0.0546443149771712 
0.0546443149771712 0.0546443149771712 0.01604864676589975 0.01604864676589975 0.01604864676589975 0.01604864676589975 0.01158247276328848 0.01158247276328848 0.01158247276328848 
0.01158247276328848 0.01149260900098206 0.01149260900098206 0.01149260900098206 0.01149260900098206 0.01153720063599158 0.01153720063599158 0.01153720063599158 0.01153720063599158 
0.01158144161760402 0.01158144161760402 0.01158144161760402 0.01158144161760402 0.0116221315535432 0.0116221315535432 0.0116221315535432 0.0116221315535432 0.01165928554413713 
0.01165928554413713 0.01165928554413713 0.01165928554413713 0.01169298846158675 0.01169298846158675 0.01169298846158675 0.01169298846158675 0.01172331552168368 0.01172331552168368 
0.01172331552168368 0.01172331552168368 0.01175033106362089 0.01175033106362089 0.01175033106362089 0.01175033106362089 0.01177409105149152 0.01177409105149152 0.01177409105149152 
0.01177409105149152 0.01179465356969864 0.01179465356969864 0.01179465356969864 0.01179465356969864 0.01181212400034626 0.01181212400034626 0.01181212400034626 0.01181212400034626 
0.0118256498726224 0.0118256498726224 0.0118256498726224 0.0118256498726224 0.01183458055043174 0.01183458055043174 0.01183458055043174 0.01183458055043174 0.01183949198448144 
0.01183949198448144 0.01183949198448144 0.01183949198448144 0.01184084699505103 0.01184084699505103 0.01184084699505103 0.01184084699505103 0.01183887129424572 0.01183887129424572 
0.01183887129424572 0.01183887129424572 0.01183364259865662 0.01183364259865662 0.01183364259865662 0.01183364259865662 0.01182516465428201 0.01182516465428201 0.01182516465428201 
0.01182516465428201 0.01181340516444124 0.01181340516444124 0.01181340516444124 0.01181340516444124 0.01179831135180314 0.01179831135180314 0.01179831135180314 0.01179831135180314 
0.01177981532410735 0.01177981532410735 0.01177981532410735 0.01177981532410735 0.0117578354151857 0.0117578354151857 0.0117578354151857 0.0117578354151857 0.01173227602136868 
0.01173227602136868 0.01173227602136868 0.01173227602136868 0.01170302543450973 0.01170302543450973 0.01170302543450973 0.01170302543450973 0.01166279568764962 0.01166279568764962 
0.01166279568764962 0.01166279568764962 0.009391622532525557 0.009391622532525557 0.009391622532525557 0.009391622532525557 -0.03769788555813023 -0.03769788555813023 -0.03769788555813023 
-0.03769788555813023 -0.1325055311075984 -0.1325055311075984 -0.1325055311075984 -0.1325055311075984 -0.2277932154754442 -0.2277932154754442 -0.2277932154754442 -0.2277932154754442 
-0.3080159510530626 -0.3080159510530626 -0.3080159510530626 -0.3080159510530626 -0.3698858041402853 -0.3698858041402853 -0.3698858041402853 -0.3698858041402853 -0.415054725222791 
-0.415054725222791 -0.415054725222791 -0.415054725222791 -0.4467165925775794 -0.4467165925775794 -0.4467165925775794 -0.4467165925775794 -0.4681486889295342 -0.4681486889295342 
-0.4681486889295342 -0.4681486889295342 -0.4821669324330222 -0.4821669324330222 -0.4821669324330222 -0.4821669324330222 -0.4909898405517382 -0.4909898405517382 -0.4909898405517382 
-0.4909898405517382 -0.4962729297230571 -0.4962729297230571 -0.4962729297230571 -0.4962729297230571 -0.4992025634525635 -0.4992025634525635 -0.4992025634525635 -0.4992025634525635 
-0.5006001395522303 -0.5006001395522303 -0.5006001395522303 -0.5006001395522303 -0.5010166054118672 -0.5010166054118672 -0.5010166054118672 -0.5010166054118672 -0.5008103850017338 
-0.5008103850017338 -0.5008103850017338 -0.5008103850017338 -0.500207920393471 -0.500207920393471 -0.500207920393471 -0.500207920393471 -0.4993476373923732 -0.4993476373923732 
-0.4993476373923732 -0.4993476373923732 -0.4983115747436365 -0.4983115747436365 -0.4983115747436365 -0.4983115747436365 -0.4971469659529821 -0.4971469659529821 -0.4971469659529821 
-0.4971469659529821 -0.4958802238368136 -0.4958802238368136 -0.4958802238368136 -0.4958802238368136 -0.4945256987750182 -0.4945256987750182 -0.4945256987750182 -0.4945256987750182 
-0.4930909736540406 -0.4930909736540406 -0.4930909736540406 -0.4930909736540406 -0.4915799516826742 -0.4915799516826742 -0.4915799516826742 -0.4915799516826742 -0.4899945929373309 
-0.4899945929373309 -0.4899945929373309 -0.4899945929373309 -0.4883358565780287 -0.4883358565780287 -0.4883358565780287 -0.4883358565780287 -0.4866041948270666 -0.4866041948270666 
-0.4866041948270666 -0.4866041948270666 -0.4847998041745134 -0.4847998041745134 -0.4847998041745134 -0.4847998041745134 -0.4829227503613139 -0.4829227503613139 -0.4829227503613139 
-0.4829227503613139 -0.4809730303241833 -0.4809730303241833 -0.4809730303241833 -0.4809730303241833 -0.4789506038356853 -0.4789506038356853 -0.4789506038356853 -0.4789506038356853 
-0.4768554110442174 -0.4768554110442174 -0.4768554110442174 -0.4768554110442174 -0.4746873835806074 -0.4746873835806074 -0.4746873835806074 -0.4746873835806074 -0.4724464527005571 
-0.4724464527005571 -0.4724464527005571 -0.4724464527005571 -0.4701325559680474 -0.4701325559680474 -0.4701325559680474 -0.4701325559680474 -0.4677456431095616 -0.4677456431095616 
-0.4677456431095616 -0.4677456431095616 -0.4652856812968071 -0.4652856812968071 -0.4652856812968071 -0.4652856812968071 -0.4627526599637667 -0.4627526599637667 -0.4627526599637667 
-0.4627526599637667 -0.4601465952036488 -0.4601465952036488 -0.4601465952036488 -0.4601465952036488 -0.4574675337673695 -0.4574675337673695 -0.4574675337673695 -0.4574675337673695 
-0.4547155566751785 -0.4547155566751785 -0.4547155566751785 -0.4547155566751785 -0.4518907824483763 -0.4518907824483763 -0.4518907824483763 -0.4518907824483763 -0.4489933699656522 
-0.4489933699656522 -0.4489933699656522 -0.4489933699656522 -0.4460235209472709 -0.4460235209472709 -0.4460235209472709 -0.4460235209472709 -0.4429814820697816 -0.4429814820697816 
-0.4429814820697816 -0.4429814820697816 -0.439867546713899 -0.439867546713899 -0.439867546713899 -0.439867546713899 -0.4366820563486405 -0.4366820563486405 -0.4366820563486405 
-0.4366820563486405 -0.4334254015555746 -0.4334254015555746 -0.4334254015555746 -0.4334254015555746 -0.4300980226980523 -0.4300980226980523 -0.4300980226980523 -0.4300980226980523 
-0.4267004102414431 -0.4267004102414431 -0.4267004102414431 -0.4267004102414431 -0.423233104731478 -0.423233104731478 -0.423233104731478 -0.423233104731478 -0.4196966964385923 
-0.4196966964385923 -0.4196966964385923 -0.4196966964385923 -0.416091824676207 -0.416091824676207 -0.416091824676207 -0.416091824676207 -0.4124191767994961 -0.4124191767994961 
-0.4124191767994961 -0.4124191767994961 -0.4086794868871338 -0.4086794868871338 -0.4086794868871338 -0.4086794868871338 -0.404873534099657 -0.404873534099657 -0.404873534099657 
-0.404873534099657 -0.4010021406907006 -0.4010021406907006 -0.4010021406907006 -0.4010021406907006 -0.3970661696149411 -0.3970661696149411 -0.3970661696149411 -0.3970661696149411 
-0.3930665216177985 -0.3930665216177985 -0.3930665216177985 -0.3930665216177985 -0.3890041315872358 -0.3890041315872358 -0.3890041315872358 -0.3890041315872358 -0.3848799637636949 
-0.3848799637636949 -0.3848799637636949 -0.3848799637636949 -0.3806950050830447 -0.3806950050830447 -0.3806950050830447 -0.3806950050830447 -0.3764502553724909 -0.3764502553724909 
-0.3764502553724909 -0.3764502553724909 -0.3721467121685012 -0.3721467121685012 -0.3721467121685012 -0.3721467121685012 -0.3677853463100139 -0.3677853463100139 -0.3677853463100139 
-0.3677853463100139 -0.3633670617384266 -0.3633670617384266 -0.3633670617384266 -0.3633670617384266 -0.3588926283933124 -0.3588926283933124 -0.3588926283933124 -0.3588926283933124 
-0.3543625695855324 -0.3543625695855324 -0.3543625695855324 -0.3543625695855324 -0.3497769729521418 -0.3497769729521418 -0.3497769729521418 -0.3497769729521418 -0.3451351742426201 
-0.3451351742426201 -0.3451351742426201 -0.3451351742426201 -0.3404352314538596 -0.3404352314538596 -0.3404352314538596 -0.3404352314538596 -0.3356730567358269 -0.3356730567358269 
-0.3356730567358269 -0.3356730567358269 -0.3308409953726311 -0.3308409953726311 -0.3308409953726311 -0.3308409953726311 -0.3259255207250241 -0.3259255207250241 -0.3259255207250241 
-0.3259255207250241 -0.3209035405621196 -0.3209035405621196 -0.3209035405621196 -0.3209035405621196 -0.3157366480964734 -0.3157366480964734 -0.3157366480964734 -0.3157366480964734 
-0.3103620973033354 -0.3103620973033354 -0.3103620973033354 -0.3103620973033354 -0.3046789004284495 -0.3046789004284495 -0.3046789004284495 -0.3046789004284495 -0.29852679249365 
-0.29852679249365 -0.29852679249365 -0.29852679249365 -0.2916547283371312 -0.2916547283371312 -0.2916547283371312 -0.2916547283371312 -0.283674126630343 -0.283674126630343 
-0.283674126630343 -0.283674126630343 -0.2739895550158488 -0.2739895550158488 -0.2739895550158488 -0.2739895550158488 -0.2616946554210208 -0.2616946554210208 -0.2616946554210208 
-0.2616946554210208 -0.2454104762994799 -0.2454104762994799 -0.2454104762994799 -0.2454104762994799 -0.2230191839280613 -0.2230191839280613 -0.2230191839280613 -0.2230191839280613 
-0.191199179849412 -0.191199179849412 -0.191199179849412 -0.191199179849412 -0.1446787074328246 -0.1446787074328246 -0.1446787074328246 -0.1446787074328246 -0.0747733810250783 
-0.0747733810250783 -0.0747733810250783 -0.0747733810250783 0.06456090295103716 0.06456090295103716 0.06456090295103716 0.06456090295103716 0.1402181727620858 0.1402181727620858 
0.1402181727620858 0.1402181727620858 0.1928575648814113 0.1928575648814113 0.1928575648814113 0.1928575648814113 0.2294660212890808 0.2294660212890808 0.2294660212890808 
0.2294660212890808 0.2555407328504725 0.2555407328504725 0.2555407328504725 0.2555407328504725 0.2746452269700625 0.2746452269700625 0.2746452269700625 0.2746452269700625 
0.2890658982710131 0.2890658982710131 0.2890658982710131 0.2890658982710131 0.3003207041286238 0.3003207041286238 0.3003207041286238 0.3003207041286238 0.3094360143748031 
0.3094360143748031 0.3094360143748031 0.3094360143748031 0.3171093748102544 0.3171093748102544 0.3171093748102544 0.3171093748102544 0.3238135314668152 0.3238135314668152 
0.3238135314668152 0.3238135314668152 0.3298665505285004 0.3298665505285004 0.3298665505285004 0.3298665505285004 0.3354803471137294 0.3354803471137294 0.3354803471137294 
0.3354803471137294 0.3407945455380014 0.3407945455380014 0.3407945455380014 0.3407945455380014 0.3459000440547954 0.3459000440547954 0.3459000440547954 0.3459000440547954 
0.3508552597121706 0.3508552597121706 0.3508552597121706 0.3508552597121706 0.3556972471402778 0.3556972471402778 0.3556972471402778 0.3556972471402778 0.3604491204426733 
0.3604491204426733 0.3604491204426733 0.3604491204426733 0.3651249786492589 0.3651249786492589 0.3651249786492589 0.3651249786492589 0.369733189342475 0.369733189342475 
0.369733189342475 0.369733189342475 0.3742785095812675 0.3742785095812675 0.3742785095812675 0.3742785095812675 0.3787634431176011 0.3787634431176011 0.3787634431176011 
0.3787634431176011 0.3831891014133214 0.3831891014133214 0.3831891014133214 0.3831891014133214 0.3875557454443568 0.3875557454443568 0.3875557454443568 0.3875557454443568 
0.3918631241532929 0.3918631241532929 0.3918631241532929 0.3918631241532929 0.3961106845763883 0.3961106845763883 0.3961106845763883 0.3961106845763883 0.400297701710996 