Title = Quad200
FileType = Solution
Variables = q
Zone T = Quad200
ZoneType = FETriangle
Nodes = 160000
Elements = 80000
DataPacking = Block
StrandID = 4
SolutionTime = 0.3
0.9303113270642657 0.9303113270642657 0.9303113270642657 0.9303113270642657 0.9326862072087674 0.9326862072087674 0.9326862072087674 0.9326862072087674 0.9341060107680123 0.9341060107680123 
0.9341060107680123 0.9341060107680123 0.9317229219259466 0.9317229219259466 0.9317229219259466 0.9317229219259466 0.9085012961978465 0.9085012961978465 0.9085012961978465 
0.9085012961978465 0.8007332148341977 0.8007332148341977 0.8007332148341977 0.8007332148341977 0.5099628462553993 0.5099628462553993 0.5099628462553993 0.5099628462553993 
0.1279231171607968 0.1279231171607968 0.1279231171607968 0.1279231171607968 0.007030963516978392 0.007030963516978392 0.007030963516978392 0.007030963516978392 0.00408556382959547 
0.00408556382959547 0.00408556382959547 0.00408556382959547 0.004437102887985046 0.004437102887985046 0.004437102887985046 0.004437102887985046 0.004778090464273997 0.004778090464273997 
0.004778090464273997 0.004778090464273997 0.005104954754394295 0.005104954754394295 0.005104954754394295 0.005104954754394295 0.005418055631140537 0.005418055631140537 0.005418055631140537 
0.005418055631140537 0.005717787573941382 0.005717787573941382 0.005717787573941382 0.005717787573941382 0.006004564016011992 0.006004564016011992 0.006004564016011992 0.006004564016011992 
0.00627880756687633 0.00627880756687633 0.00627880756687633 0.00627880756687633 0.006540942551046737 0.006540942551046737 0.006540942551046737 0.006540942551046737 0.00679138936192477 
0.00679138936192477 0.00679138936192477 0.00679138936192477 0.007030560238513128 0.007030560238513128 0.007030560238513128 0.007030560238513128 0.007258856155773367 0.007258856155773367 
0.007258856155773367 0.007258856155773367 0.007476664584788375 0.007476664584788375 0.007476664584788375 0.007476664584788375 0.007684357930246966 0.007684357930246966 0.007684357930246966 
0.007684357930246966 0.007882292493207613 0.007882292493207613 0.007882292493207613 0.007882292493207613 0.008070807838991733 0.008070807838991733 0.008070807838991733 0.008070807838991733 
0.00825022647524851 0.00825022647524851 0.00825022647524851 0.00825022647524851 0.008420853765153238 0.008420853765153238 0.008420853765153238 0.008420853765153238 0.008582978016470899 
0.008582978016470899 0.008582978016470899 0.008582978016470899 0.008736870699718038 0.008736870699718038 0.008736870699718038 0.008736870699718038 0.008882786758561835 0.008882786758561835 
0.008882786758561835 0.008882786758561835 0.00902096498346186 0.00902096498346186 0.00902096498346186 0.00902096498346186 0.009151628425799235 0.009151628425799235 0.009151628425799235 
0.009151628425799235 0.009274984834685597 0.009274984834685597 0.009274984834685597 0.009274984834685597 0.009391227102574094 0.009391227102574094 0.009391227102574094 0.009391227102574094 
0.00950053370889989 0.00950053370889989 0.00950053370889989 0.00950053370889989 0.009603069153443129 0.009603069153443129 0.009603069153443129 0.009603069153443129 0.009698984373041638 
0.009698984373041638 0.009698984373041638 0.009698984373041638 0.009788417136814963 0.009788417136814963 0.009788417136814963 0.009788417136814963 0.009871492416251871 0.009871492416251871 
0.009871492416251871 0.009871492416251871 0.009948322727450196 0.009948322727450196 0.009948322727450196 0.009948322727450196 0.01001900844351658 0.01001900844351658 0.01001900844351658 
0.01001900844351658 0.01008363807569169 0.01008363807569169 0.01008363807569169 0.01008363807569169 0.01014228852220366 0.01014228852220366 0.01014228852220366 0.01014228852220366 
0.01019502528430019 0.01019502528430019 0.01019502528430019 0.01019502528430019 0.01024190265018686 0.01024190265018686 0.01024190265018686 0.01024190265018686 0.01028296385663652 
0.01028296385663652 0.01028296385663652 0.01028296385663652 0.01031824131585112 0.01031824131585112 0.01031824131585112 0.01031824131585112 0.01034775765166186 0.01034775765166186 
0.01034775765166186 0.01034775765166186 0.01037153336755278 0.01037153336755278 0.01037153336755278 0.01037153336755278 0.01038964129099436 0.01038964129099436 0.01038964129099436 
0.01038964129099436 0.0103998295329192 0.0103998295329192 0.0103998295329192 0.0103998295329192 0.01040158956714093 0.01040158956714093 0.01040158956714093 0.01040158956714093 
0.01039706553553036 0.01039706553553036 0.01039706553553036 0.01039706553553036 0.01038663919104951 0.01038663919104951 0.01038663919104951 0.01038663919104951 0.01037033928587121 
0.01037033928587121 0.01037033928587121 0.01037033928587121 0.0103481262122299 0.0103481262122299 0.0103481262122299 0.0103481262122299 0.01031994035446702 0.01031994035446702 
0.01031994035446702 0.01031994035446702 0.01028570907700112 0.01028570907700112 0.01028570907700112 0.01028570907700112 0.01024534741597452 0.01024534741597452 0.01024534741597452 
0.01024534741597452 0.01019875787351284 0.01019875787351284 0.01019875787351284 0.01019875787351284 0.0101458300591851 0.0101458300591851 0.0101458300591851 0.0101458300591851 
0.0100864402755771 0.0100864402755771 0.0100864402755771 0.0100864402755771 0.01002045106060251 0.01002045106060251 0.01002045106060251 0.01002045106060251 0.009947710688441691 
0.009947710688441691 0.009947710688441691 0.009947710688441691 0.009868052629876885 0.009868052629876885 0.009868052629876885 0.009868052629876885 0.00978129497312282 0.00978129497312282 
0.00978129497312282 0.00978129497312282 0.009687239806971362 0.009687239806971362 0.009687239806971362 0.009687239806971362 0.009585672569071073 0.009585672569071073 0.009585672569071073 
0.009585672569071073 0.009476361363470368 0.009476361363470368 0.009476361363470368 0.009476361363470368 0.009359056253257236 0.009359056253257236 0.009359056253257236 0.009359056253257236 
0.009233488536316161 0.009233488536316161 0.009233488536316161 0.009233488536316161 0.009099370015038993 0.009099370015038993 0.009099370015038993 0.009099370015038993 0.008956392274417545 
0.008956392274417545 0.008956392274417545 0.008956392274417545 0.008804225987542188 0.008804225987542188 0.008804225987542188 0.008804225987542188 0.008642520273377205 0.008642520273377205 
0.008642520273377205 0.008642520273377205 0.008470902139137364 0.008470902139137364 0.008470902139137364 0.008470902139137364 0.008288976049072095 0.008288976049072095 0.008288976049072095 
0.008288976049072095 0.008096323673536774 0.008096323673536774 0.008096323673536774 0.008096323673536774 0.007892503887597522 0.007892503887597522 0.007892503887597522 0.007892503887597522 
0.007677053108002454 0.007677053108002454 0.007677053108002454 0.007677053108002454 0.007449486082323831 0.007449486082323831 0.007449486082323831 0.007449486082323831 0.007209297275967989 
0.007209297275967989 0.007209297275967989 0.007209297275967989 0.006955963043522055 0.006955963043522055 0.006955963043522055 0.006955963043522055 0.006688944823129766 0.006688944823129766 
0.006688944823129766 0.006688944823129766 0.006407693659587354 0.006407693659587354 0.006407693659587354 0.006407693659587354 0.006111656447974162 0.006111656447974162 0.006111656447974162 
0.006111656447974162 0.005800284400565816 0.005800284400565816 0.005800284400565816 0.005800284400565816 0.005473044382965826 0.005473044382965826 0.005473044382965826 0.005473044382965826 
0.005129433950565284 0.005129433950565284 0.005129433950565284 0.005129433950565284 0.004768999228337588 0.004768999228337588 0.004768999228337588 0.004768999228337588 0.004322769820544411 
0.004322769820544411 0.004322769820544411 0.004322769820544411 -0.023170702523829 -0.023170702523829 -0.023170702523829 -0.023170702523829 -0.2926807868884422 -0.2926807868884422 
-0.2926807868884422 -0.2926807868884422 -0.674998459031842 -0.674998459031842 -0.674998459031842 -0.674998459031842 -0.8691539930645602 -0.8691539930645602 -0.8691539930645602 
-0.8691539930645602 -0.9227786222575044 -0.9227786222575044 -0.9227786222575044 -0.9227786222575044 -0.9313649838478109 -0.9313649838478109 -0.9313649838478109 -0.9313649838478109 
-0.9313298686925966 -0.9313298686925966 -0.9313298686925966 -0.9313298686925966 -0.9296856026264273 -0.9296856026264273 -0.9296856026264273 -0.9296856026264273 -0.9274087612196326 
-0.9274087612196326 -0.9274087612196326 -0.9274087612196326 -0.924656323333323 -0.924656323333323 -0.924656323333323 -0.924656323333323 -0.9214799492340244 -0.9214799492340244 
-0.9214799492340244 -0.9214799492340244 -0.9179123652514202 -0.9179123652514202 -0.9179123652514202 -0.9179123652514202 -0.9139793992620061 -0.9139793992620061 -0.9139793992620061 
-0.9139793992620061 -0.9097025886023891 -0.9097025886023891 -0.9097025886023891 -0.9097025886023891 -0.9051002672759132 -0.9051002672759132 -0.9051002672759132 -0.9051002672759132 
-0.9001882452865733 -0.9001882452865733 -0.9001882452865733 -0.9001882452865733 -0.8949802975524486 -0.8949802975524486 -0.8949802975524486 -0.8949802975524486 -0.8894885339450569 
-0.8894885339450569 -0.8894885339450569 -0.8894885339450569 -0.8837236866257491 -0.8837236866257491 -0.8837236866257491 -0.8837236866257491 -0.8776953371243645 -0.8776953371243645 
-0.8776953371243645 -0.8776953371243645 -0.8714120983216064 -0.8714120983216064 -0.8714120983216064 -0.8714120983216064 -0.8648817619797866 -0.8648817619797866 -0.8648817619797866 
-0.8648817619797866 -0.8581114196244108 -0.8581114196244108 -0.8581114196244108 -0.8581114196244108 -0.8511075623450077 -0.8511075623450077 -0.8511075623450077 -0.8511075623450077 
-0.8438761642984545 -0.8438761642984545 -0.8438761642984545 -0.8438761642984545 -0.8364227510013383 -0.8364227510013383 -0.8364227510013383 -0.8364227510013383 -0.8287524737212748 
-0.8287524737212748 -0.8287524737212748 -0.8287524737212748 -0.8208701621054605 -0.8208701621054605 -0.8208701621054605 -0.8208701621054605 -0.8127803587590888 -0.8127803587590888 
-0.8127803587590888 -0.8127803587590888 -0.8044873454086348 -0.8044873454086348 -0.8044873454086348 -0.8044873454086348 -0.7959951779489978 -0.7959951779489978 -0.7959951779489978 
-0.7959951779489978 -0.7873077101149925 -0.7873077101149925 -0.7873077101149925 -0.7873077101149925 -0.7784286154664548 -0.7784286154664548 -0.7784286154664548 -0.7784286154664548 
-0.7693614034257021 -0.7693614034257021 -0.7693614034257021 -0.7693614034257021 -0.760109430676574 -0.760109430676574 -0.760109430676574 -0.760109430676574 -0.7506759053015244 
-0.7506759053015244 -0.7506759053015244 -0.7506759053015244 -0.7410638808835973 -0.7410638808835973 -0.7410638808835973 -0.7410638808835973 -0.7312762342195016 -0.7312762342195016 
-0.7312762342195016 -0.7312762342195016 -0.7213156154263088 -0.7213156154263088 -0.7213156154263088 -0.7213156154263088 -0.7111843498194542 -0.7111843498194542 -0.7111843498194542 
-0.7111843498194542 -0.7008842541575244 -0.7008842541575244 -0.7008842541575244 -0.7008842541575244 -0.690416299462966 -0.690416299462966 -0.690416299462966 -0.690416299462966 
-0.6797799978412514 -0.6797799978412514 -0.6797799978412514 -0.6797799978412514 -0.6689722925848424 -0.6689722925848424 -0.6689722925848424 -0.6689722925848424 -0.657985556821495 
-0.657985556821495 -0.657985556821495 -0.657985556821495 -0.6468040019933736 -0.6468040019933736 -0.6468040019933736 -0.6468040019933736 -0.6353972773313044 -0.6353972773313044 
-0.6353972773313044 -0.6353972773313044 -0.6237091774104264 -0.6237091774104264 -0.6237091774104264 -0.6237091774104264 -0.6116380065026126 -0.6116380065026126 -0.6116380065026126 
-0.6116380065026126 -0.5990031722533682 -0.5990031722533682 -0.5990031722533682 -0.5990031722533682 -0.5854903150067321 -0.5854903150067321 -0.5854903150067321 -0.5854903150067321 
-0.5705659947500605 -0.5705659947500605 -0.5705659947500605 -0.5705659947500605 -0.5533525301807595 -0.5533525301807595 -0.5533525301807595 -0.5533525301807595 -0.532463197916307 
-0.532463197916307 -0.532463197916307 -0.532463197916307 -0.5059044371264392 -0.5059044371264392 -0.5059044371264392 -0.5059044371264392 -0.4709847665239378 -0.4709847665239378 
-0.4709847665239378 -0.4709847665239378 -0.4230039059152759 -0.4230039059152759 -0.4230039059152759 -0.4230039059152759 -0.3571255672473127 -0.3571255672473127 -0.3571255672473127 
-0.3571255672473127 -0.2748844523911616 -0.2748844523911616 -0.2748844523911616 -0.2748844523911616 -0.159977491169485 -0.159977491169485 -0.159977491169485 -0.159977491169485 
0.001578505914550942 0.001578505914550942 0.001578505914550942 0.001578505914550942 0.168577430226177 0.168577430226177 0.168577430226177 0.168577430226177 0.2849767291552048 
0.2849767291552048 0.2849767291552048 0.2849767291552048 0.3692675841405906 0.3692675841405906 0.3692675841405906 0.3692675841405906 0.4383181688161338 0.4383181688161338 
0.4383181688161338 0.4383181688161338 0.4895004472510437 0.4895004472510437 0.4895004472510437 0.4895004472510437 0.5271865551691672 0.5271865551691672 0.5271865551691672 
0.5271865551691672 0.5560322177353153 0.5560322177353153 0.5560322177353153 0.5560322177353153 0.5787379861785861 0.5787379861785861 0.5787379861785861 0.5787379861785861 
0.5972938256148418 0.5972938256148418 0.5972938256148418 0.5972938256148418 0.6131411965765908 0.6131411965765908 0.6131411965765908 0.6131411965765908 0.6272383213763948 
0.6272383213763948 0.6272383213763948 0.6272383213763948 0.6402009542016297 0.6402009542016297 0.6402009542016297 0.6402009542016297 0.6524153355214046 0.6524153355214046 
0.6524153355214046 0.6524153355214046 0.664117954491953 0.664117954491953 0.664117954491953 0.664117954491953 0.6754506136466684 0.6754506136466684 0.6754506136466684 
0.6754506136466684 0.6864968144821458 0.6864968144821458 0.6864968144821458 0.6864968144821458 0.6973048743557034 0.6973048743557034 0.6973048743557034 0.6973048743557034 
0.7079021638986966 0.7079021638986966 0.7079021638986966 0.7079021638986966 0.7183036771137271 0.7183036771137271 0.7183036771137271 0.7183036771137271 0.7285171117671443 
0.7285171117671443 0.7285171117671443 0.7285171117671443 0.7385458529157863 0.7385458529157863 0.7385458529157863 0.7385458529157863 0.7483907152831977 0.7483907152831977 
0.7483907152831977 0.7483907152831977 0.758050957023623 0.758050957023623 0.758050957023623 0.758050957023623 0.7675248673334437 0.7675248673334437 0.7675248673334437 
0.7675248673334437 0.776810104893389 0.776810104893389 0.776810104893389 0.776810104893389 0.7859038902139548 0.7859038902139548 0.7859038902139548 0.7859038902139548 
0.7948031117315482 0.7948031117315482 0.7948031117315482 0.7948031117315482 0.8035043802657496 0.8035043802657496 0.8035043802657496 0.8035043802657496 0.8120040519352767 
0.8120040519352767 0.8120040519352767 0.8120040519352767 0.8202982306572093 0.8202982306572093 0.8202982306572093 0.8202982306572093 0.8283827573051585 0.8283827573051585 
0.8283827573051585 0.8283827573051585 0.8362531875035402 0.8362531875035402 0.8362531875035402 0.8362531875035402 0.8439047623733869 0.8439047623733869 0.8439047623733869 
0.8439047623733869 0.8513323681700641 0.8513323681700641 0.8513323681700641 0.8513323681700641 0.8585304894333783 0.8585304894333783 0.8585304894333783 0.8585304894333783 
0.8654931629544977 0.8654931629544977 0.8654931629544977 0.8654931629544977 0.8722139114494836 0.8722139114494836 0.8722139114494836 0.8722139114494836 0.8786856462807827 
0.8786856462807827 0.8786856462807827 0.8786856462807827 0.8849005623405272 0.8849005623405272 0.8849005623405272 0.8849005623405272 0.8908500164897433 0.8908500164897433 
0.8908500164897433 0.8908500164897433 0.8965243773501445 0.8965243773501445 0.8965243773501445 0.8965243773501445 0.9019128396266571 0.9019128396266571 0.9019128396266571 
0.9019128396266571 0.9070031911076685 0.9070031911076685 0.9070031911076685 0.9070031911076685 0.9117815153300246 0.9117815153300246 0.9117815153300246 0.9117815153300246 
0.9162318020405713 0.9162318020405713 0.9162318020405713 0.9162318020405713 0.9203354093263139 0.9203354093263139 0.9203354093263139 0.9203354093263139 0.9240702155950655 
0.9240702155950655 0.9240702155950655 0.9240702155950655 0.9274087612196324 0.9274087612196324 0.9274087612196324 0.9274087612196324 0.9326862072087669 0.9326862072087669 
0.9326862072087669 0.9326862072087669 0.9349173235362447 0.9349173235362447 0.9349173235362447 0.9349173235362447 0.9347934255133756 0.9347934255133756 0.9347934255133756 
0.9347934255133756 0.9231929285077534 0.9231929285077534 0.9231929285077534 0.9231929285077534 0.8608332868724357 0.8608332868724357 0.8608332868724357 0.8608332868724357 
0.6577272162031823 0.6577272162031823 0.6577272162031823 0.6577272162031823 0.283074171371098 0.283074171371098 0.283074171371098 0.283074171371098 0.03220396039802333 
0.03220396039802333 0.03220396039802333 0.03220396039802333 0.009039634935725781 0.009039634935725781 0.009039634935725781 0.009039634935725781 0.009685391205500271 0.009685391205500271 
0.009685391205500271 0.009685391205500271 0.01042215052147516 0.01042215052147516 0.01042215052147516 0.01042215052147516 0.01112043589396783 0.01112043589396783 0.01112043589396783 
0.01112043589396783 0.01178247984580298 0.01178247984580298 0.01178247984580298 0.01178247984580298 0.01241051909337138 0.01241051909337138 0.01241051909337138 0.01241051909337138 
0.01300658329561584 0.01300658329561584 0.01300658329561584 0.01300658329561584 0.01357251959377432 0.01357251959377432 0.01357251959377432 0.01357251959377432 0.01411001372157138 
0.01411001372157138 0.01411001372157138 0.01411001372157138 0.01462060795336659 0.01462060795336659 0.01462060795336659 0.01462060795336659 0.0151057164503875 0.0151057164503875 
0.0151057164503875 0.0151057164503875 0.01556663845358579 0.01556663845358579 0.01556663845358579 0.01556663845358579 0.01600456968374518 0.01600456968374518 0.01600456968374518 
0.01600456968374518 0.01642061224036399 0.01642061224036399 0.01642061224036399 0.01642061224036399 0.01681578323622974 0.01681578323622974 0.01681578323622974 0.01681578323622974 
0.01719102236123462 0.01719102236123462 0.01719102236123462 0.01719102236123462 0.01754719853436208 0.01754719853436208 0.01754719853436208 0.01754719853436208 0.01788511577500577 
0.01788511577500577 0.01788511577500577 0.01788511577500577 0.01820551840239263 0.01820551840239263 0.01820551840239263 0.01820551840239263 0.01850909565374971 0.01850909565374971 
0.01850909565374971 0.01850909565374971 0.0187964857970848 0.0187964857970848 0.0187964857970848 0.0187964857970848 0.01906827980237859 0.01906827980237859 0.01906827980237859 
0.01906827980237859 0.01932502462505677 0.01932502462505677 0.01932502462505677 0.01932502462505677 0.01956722614740684 0.01956722614740684 0.01956722614740684 0.01956722614740684 
0.01979535181680163 0.01979535181680163 0.01979535181680163 0.01979535181680163 0.02000983301390695 0.02000983301390695 0.02000983301390695 0.02000983301390695 0.02021106717929307 
0.02021106717929307 0.02021106717929307 0.02021106717929307 0.0203994197228513 0.0203994197228513 0.0203994197228513 0.0203994197228513 0.02057522573701982 0.02057522573701982 
0.02057522573701982 0.02057522573701982 0.02073879153192124 0.02073879153192124 0.02073879153192124 0.02073879153192124 0.02089039600803208 0.02089039600803208 0.02089039600803208 
0.02089039600803208 0.0210302918798616 0.0210302918798616 0.0210302918798616 0.0210302918798616 0.02115870676225801 0.02115870676225801 0.02115870676225801 0.02115870676225801 
0.02127584412933434 0.02127584412933434 0.02127584412933434 0.02127584412933434 0.02138188415457567 0.02138188415457567 0.02138188415457567 0.02138188415457567 0.02147698443943112 
0.02147698443943112 0.02147698443943112 0.02147698443943112 0.02156128063666602 0.02156128063666602 0.02156128063666602 0.02156128063666602 0.02163488697476072 0.02163488697476072 
0.02163488697476072 0.02163488697476072 0.02169789669872767 0.02169789669872767 0.02169789669872767 0.02169789669872767 0.02175038253651259 0.02175038253651259 0.02175038253651259 
0.02175038253651259 0.02179239813033058 0.02179239813033058 0.02179239813033058 0.02179239813033058 0.02182398778452251 0.02182398778452251 0.02182398778452251 0.02182398778452251 
0.02184466605394203 0.02184466605394203 0.02184466605394203 0.02184466605394203 0.02185419280388665 0.02185419280388665 0.02185419280388665 0.02185419280388665 0.02185297063685037 
0.02185297063685037 0.02185297063685037 0.02185297063685037 0.02184116053056206 0.02184116053056206 0.02184116053056206 0.02184116053056206 0.02181876432273161 0.02181876432273161 
0.02181876432273161 0.02181876432273161 0.02178571510042075 0.02178571510042075 0.02178571510042075 0.02178571510042075 0.02174191143176716 0.02174191143176716 0.02174191143176716 
0.02174191143176716 0.02168722650644607 0.02168722650644607 0.02168722650644607 0.02168722650644607 0.02162150976542115 0.02162150976542115 0.02162150976542115 0.02162150976542115 
0.02154458657663455 0.02154458657663455 0.02154458657663455 0.02154458657663455 0.02145625737121628 0.02145625737121628 0.02145625737121628 0.02145625737121628 0.02135629655337944 
0.02135629655337944 0.02135629655337944 0.02135629655337944 0.02124445124070988 0.02124445124070988 0.02124445124070988 0.02124445124070988 0.02112043983497683 0.02112043983497683 
0.02112043983497683 0.02112043983497683 0.02098395040998873 0.02098395040998873 0.02098395040998873 0.02098395040998873 0.02083463889802263 0.02083463889802263 0.02083463889802263 
0.02083463889802263 0.02067212705278353 0.02067212705278353 0.02067212705278353 0.02067212705278353 0.02049600016315096 0.02049600016315096 0.02049600016315096 0.02049600016315096 
0.02030580448774036 0.02030580448774036 0.02030580448774036 0.02030580448774036 0.02010104437534341 0.02010104437534341 0.02010104437534341 0.02010104437534341 0.01988117903043569 
0.01988117903043569 0.01988117903043569 0.01988117903043569 0.01964561887595701 0.01964561887595701 0.01964561887595701 0.01964561887595701 0.01939372145723667 0.01939372145723667 
0.01939372145723667 0.01939372145723667 0.01912478682092988 0.01912478682092988 0.01912478682092988 0.01912478682092988 0.01883805229081573 0.01883805229081573 0.01883805229081573 
0.01883805229081573 0.01853268654776047 0.01853268654776047 0.01853268654776047 0.01853268654776047 0.0182077829035364 0.0182077829035364 0.0182077829035364 0.0182077829035364 
0.01786235163672088 0.01786235163672088 0.01786235163672088 0.01786235163672088 0.01749531123270005 0.01749531123270005 0.01749531123270005 0.01749531123270005 0.01710547833765646 
0.01710547833765646 0.01710547833765646 0.01710547833765646 0.016691556196892 0.016691556196892 0.016691556196892 0.016691556196892 0.01625212129904028 0.01625212129904028 
0.01625212129904028 0.01625212129904028 0.01578560788732871 0.01578560788732871 0.01578560788732871 0.01578560788732871 0.01529028992408693 0.01529028992408693 0.01529028992408693 
0.01529028992408693 0.014764260001459 0.014764260001459 0.014764260001459 0.014764260001459 0.01420540457512114 0.01420540457512114 0.01420540457512114 0.01420540457512114 
0.01361137475299865 0.01361137475299865 0.01361137475299865 0.01361137475299865 0.01297955169053771 0.01297955169053771 0.01297955169053771 0.01297955169053771 0.01230700541144228 
0.01230700541144228 0.01230700541144228 0.01230700541144228 0.01159028054325547 0.01159028054325547 0.01159028054325547 0.01159028054325547 0.009421762363104408 0.009421762363104408 
0.009421762363104408 0.009421762363104408 -0.08511021126651155 -0.08511021126651155 -0.08511021126651155 -0.08511021126651155 -0.4576110971239876 -0.4576110971239876 -0.4576110971239876 
-0.4576110971239876 -0.7744802038792282 -0.7744802038792282 -0.7744802038792282 -0.7744802038792282 -0.8977550086746682 -0.8977550086746682 -0.8977550086746682 -0.8977550086746682 
-0.9249873908108659 -0.9249873908108659 -0.9249873908108659 -0.9249873908108659 -0.9284079935510587 -0.9284079935510587 -0.9284079935510587 -0.9284079935510587 -0.9277822346608869 
-0.9277822346608869 -0.9277822346608869 -0.9277822346608869 -0.9261993842953116 -0.9261993842953116 -0.9261993842953116 -0.9261993842953116 -0.9240702155950653 -0.9240702155950653 
-0.9240702155950653 -0.9240702155950653 -0.9214799492340244 -0.9214799492340244 -0.9214799492340244 -0.9214799492340244 -0.9184702933021216 -0.9184702933021216 -0.9184702933021216 
-0.9184702933021216 -0.9150721903808616 -0.9150721903808616 -0.9150721903808616 -0.9150721903808616 -0.911310944678247 -0.911310944678247 -0.911310944678247 -0.911310944678247 
-0.9072078357967002 -0.9072078357967002 -0.9072078357967002 -0.9072078357967002 -0.9027810310239783 -0.9027810310239783 -0.9027810310239783 -0.9027810310239783 -0.8980462210821805 
-0.8980462210821805 -0.8980462210821805 -0.8980462210821805 -0.8930170924810965 -0.8930170924810965 -0.8930170924810965 -0.8930170924810965 -0.8877056889994532 -0.8877056889994532 
-0.8877056889994532 -0.8877056889994532 -0.8821226938751123 -0.8821226938751123 -0.8821226938751123 -0.8821226938751123 -0.87627765359077 -0.87627765359077 -0.87627765359077 
-0.87627765359077 -0.8701791577024293 -0.8701791577024293 -0.8701791577024293 -0.8701791577024293 -0.8638349850007394 -0.8638349850007394 -0.8638349850007394 -0.8638349850007394 
-0.8572522234916865 -0.8572522234916865 -0.8572522234916865 -0.8572522234916865 -0.8504373697605466 -0.8504373697605466 -0.8504373697605466 -0.8504373697605466 -0.8433964119009981 
-0.8433964119009981 -0.8433964119009981 -0.8433964119009981 -0.8361348991900985 -0.8361348991900985 -0.8361348991900985 -0.8361348991900985 -0.8286580012310973 -0.8286580012310973 
-0.8286580012310973 -0.8286580012310973 -0.8209705571555826 -0.8209705571555826 -0.8209705571555826 -0.8209705571555826 -0.8130771266465167 -0.8130771266465167 -0.8130771266465167 
-0.8130771266465167 -0.8049820392454035 -0.8049820392454035 -0.8049820392454035 -0.8049820392454035 -0.7966894197681792 -0.7966894197681792 -0.7966894197681792 -0.7966894197681792 
-0.7882032017761307 -0.7882032017761307 -0.7882032017761307 -0.7882032017761307 -0.7795271556958172 -0.7795271556958172 -0.7795271556958172 -0.7795271556958172 -0.7706649074029529 
-0.7706649074029529 -0.7706649074029529 -0.7706649074029529 -0.76161995681281 -0.76161995681281 -0.76161995681281 -0.76161995681281 -0.7523956926181025 -0.7523956926181025 
-0.7523956926181025 -0.7523956926181025 -0.7429954052366169 -0.7429954052366169 -0.7429954052366169 -0.7429954052366169 -0.7334222967396681 -0.7334222967396681 -0.7334222967396681 
-0.7334222967396681 -0.7236794876636015 -0.7236794876636015 -0.7236794876636015 -0.7236794876636015 -0.7137700190247621 -0.7137700190247621 -0.7137700190247621 -0.7137700190247621 
-0.703696846734674 -0.703696846734674 -0.703696846734674 -0.703696846734674 -0.6934628227005978 -0.6934628227005978 -0.6934628227005978 -0.6934628227005978 -0.6830706516422747 
-0.6830706516422747 -0.6830706516422747 -0.6830706516422747 -0.6725228025630168 -0.6725228025630168 -0.6725228025630168 -0.6725228025630168 -0.6618213344844133 -0.6618213344844133 
-0.6618213344844133 -0.6618213344844133 -0.6509675590260503 -0.6509675590260503 -0.6509675590260503 -0.6509675590260503 -0.6399613914370813 -0.6399613914370813 -0.6399613914370813 
-0.6399613914370813 -0.6288001060955528 -0.6288001060955528 -0.6288001060955528 -0.6288001060955528 -0.6174759555655067 -0.6174759555655067 -0.6174759555655067 -0.6174759555655067 
-0.6059716339685306 -0.6059716339685306 -0.6059716339685306 -0.6059716339685306 -0.5942517038990272 -0.5942517038990272 -0.5942517038990272 -0.5942517038990272 -0.5822466416409751 
-0.5822466416409751 -0.5822466416409751 -0.5822466416409751 -0.5698239014904769 -0.5698239014904769 -0.5698239014904769 -0.5698239014904769 -0.5567375404384907 -0.5567375404384907 
-0.5567375404384907 -0.5567375404384907 -0.5425456597494833 -0.5425456597494833 -0.5425456597494833 -0.5425456597494833 -0.5264833505579309 -0.5264833505579309 -0.5264833505579309 
-0.5264833505579309 -0.5072811794869987 -0.5072811794869987 -0.5072811794869987 -0.5072811794869987 -0.4830210870091737 -0.4830210870091737 -0.4830210870091737 -0.4830210870091737 
-0.4510256784527138 -0.4510256784527138 -0.4510256784527138 -0.4510256784527138 -0.406644114071304 -0.406644114071304 -0.406644114071304 -0.406644114071304 -0.344680998811579 
-0.344680998811579 -0.344680998811579 -0.344680998811579 -0.264190027138717 -0.264190027138717 -0.264190027138717 -0.264190027138717 -0.1505633627913033 -0.1505633627913033 
-0.1505633627913033 -0.1505633627913033 0.006457893717220735 0.006457893717220735 0.006457893717220735 0.006457893717220735 0.1749158008601377 0.1749158008601377 0.1749158008601377 
0.1749158008601377 0.2923668767804678 0.2923668767804678 0.2923668767804678 0.2923668767804678 0.3783511574393217 0.3783511574393217 0.3783511574393217 0.3783511574393217 
0.4499861878583239 0.4499861878583239 0.4499861878583239 0.4499861878583239 0.5045776977202497 0.5045776977202497 0.5045776977202497 0.5045776977202497 0.5454404509858944 
0.5454404509858944 0.5454404509858944 0.5454404509858944 0.5770114851815782 0.5770114851815782 0.5770114851815782 0.5770114851815782 0.6019582829772345 0.6019582829772345 
0.6019582829772345 0.6019582829772345 0.6222213819356222 0.6222213819356222 0.6222213819356222 0.6222213819356222 0.6392843480358297 0.6392843480358297 0.6392843480358297 
0.6392843480358297 0.6541918687819808 0.6541918687819808 0.6541918687819808 0.6541918687819808 0.6676517934072661 0.6676517934072661 0.6676517934072661 0.6676517934072661 
0.6801314539627007 0.6801314539627007 0.6801314539627007 0.6801314539627007 0.6919318694148502 0.6919318694148502 0.6919318694148502 0.6919318694148502 0.703243056031208 
0.703243056031208 0.703243056031208 0.703243056031208 0.7141830664264512 0.7141830664264512 0.7141830664264512 0.7141830664264512 0.7248242474507649 0.7248242474507649 