Title = Quad200
FileType = Solution
Variables = q
Zone T = Quad200
ZoneType = FETriangle
Nodes = 160000
Elements = 80000
DataPacking = Block
StrandID = 3
SolutionTime = 0.2
0.0002465087443190056 0.0002465087443190056 0.0002465087443190056 0.0002465087443190056 0.0007279568234595082 0.0007279568234595082 0.0007279568234595082 0.0007279568234595082 0.001204741732853262 0.001204741732853262 
0.001204741732853262 0.001204741732853262 0.001675280605704897 0.001675280605704897 0.001675280605704897 0.001675280605704897 0.002138232303108982 0.002138232303108982 0.002138232303108982 
0.002138232303108982 0.002592504701738704 0.002592504701738704 0.002592504701738704 0.002592504701738704 0.003037219015287961 0.003037219015287961 0.003037219015287961 0.003037219015287961 
0.00347167849419612 0.00347167849419612 0.00347167849419612 0.00347167849419612 0.003895341270164187 0.003895341270164187 0.003895341270164187 0.003895341270164187 0.00430779684069563 
0.00430779684069563 0.00430779684069563 0.00430779684069563 0.00470874573846492 0.00470874573846492 0.00470874573846492 0.00470874573846492 0.005097981980582056 0.005097981980582056 
0.005097981980582056 0.005097981980582056 0.005475377939234632 0.005475377939234632 0.005475377939234632 0.005475377939234632 0.005840871317514198 0.005840871317514198 0.005840871317514198 
0.005840871317514198 0.006194453952491314 0.006194453952491314 0.006194453952491314 0.006194453952491314 0.006536162201934295 0.006536162201934295 0.006536162201934295 0.006536162201934295 
0.006866068701686591 0.006866068701686591 0.006866068701686591 0.006866068701686591 0.00718427530788908 0.00718427530788908 0.00718427530788908 0.00718427530788908 0.007490907062239345 
0.007490907062239345 0.007490907062239345 0.007490907062239345 0.007786107039611261 0.007786107039611261 0.007786107039611261 0.007786107039611261 0.008070031955902408 0.008070031955902408 
0.008070031955902408 0.008070031955902408 0.008342848430201531 0.008342848430201531 0.008342848430201531 0.008342848430201531 0.008604729809537671 0.008604729809537671 0.008604729809537671 
0.008604729809537671 0.008855853476817532 0.008855853476817532 0.008855853476817532 0.008855853476817532 0.009096398573294844 0.009096398573294844 0.009096398573294844 0.009096398573294844 
0.009326544076245329 0.009326544076245329 0.009326544076245329 0.009326544076245329 0.009546467180611638 0.009546467180611638 0.009546467180611638 0.009546467180611638 0.009756341940394854 
0.009756341940394854 0.009756341940394854 0.009756341940394854 0.009956338131643473 0.009956338131643473 0.009956338131643473 0.009956338131643473 0.01014662030414021 0.01014662030414021 
0.01014662030414021 0.01014662030414021 0.01032734699343225 0.01032734699343225 0.01032734699343225 0.01032734699343225 0.0104986700687762 0.0104986700687762 0.0104986700687762 
0.0104986700687762 0.01066073419595744 0.01066073419595744 0.01066073419595744 0.01066073419595744 0.01081367639687743 0.01081367639687743 0.01081367639687743 0.01081367639687743 
0.0109576256903267 0.0109576256903267 0.0109576256903267 0.0109576256903267 0.01109270280055294 0.01109270280055294 0.01109270280055294 0.01109270280055294 0.01121901992211248 
0.01121901992211248 0.01121901992211248 0.01121901992211248 0.01133668053113295 0.01133668053113295 0.01133668053113295 0.01133668053113295 0.01144577923451725 0.01144577923451725 
0.01144577923451725 0.01144577923451725 0.01154640164984574 0.01154640164984574 0.01154640164984574 0.01154640164984574 0.01163862430978727 0.01163862430978727 0.01163862430978727 
0.01163862430978727 0.01172251458575121 0.01172251458575121 0.01172251458575121 0.01172251458575121 0.01179813062631413 0.01179813062631413 0.01179813062631413 0.01179813062631413 
0.01186552130666467 0.01186552130666467 0.01186552130666467 0.01186552130666467 0.01192472618604183 0.01192472618604183 0.01192472618604183 0.01192472618604183 0.01197577547189962 
0.01197577547189962 0.01197577547189962 0.01197577547189962 0.0120186900043514 0.0120186900043514 0.0120186900043514 0.0120186900043514 0.01205348144179709 0.01205348144179709 
0.01205348144179709 0.01205348144179709 0.01208015461609556 0.01208015461609556 0.01208015461609556 0.01208015461609556 0.01209873066807098 0.01209873066807098 0.01209873066807098 
0.01209873066807098 0.01210762453173466 0.01210762453173466 0.01210762453173466 0.01210762453173466 0.01210656047201664 0.01210656047201664 0.01210656047201664 0.01210656047201664 
0.01209705475908706 0.01209705475908706 0.01209705475908706 0.01209705475908706 0.01207929942707149 0.01207929942707149 0.01207929942707149 0.01207929942707149 0.01205328146839352 
0.01205328146839352 0.01205328146839352 0.01205328146839352 0.01201895394488578 0.01201895394488578 0.01201895394488578 0.01201895394488578 0.01197625745433505 0.01197625745433505 
0.01197625745433505 0.01197625745433505 0.01192512240464908 0.01192512240464908 0.01192512240464908 0.01192512240464908 0.01186546918335589 0.01186546918335589 0.01186546918335589 
0.01186546918335589 0.01179720812293352 0.01179720812293352 0.01179720812293352 0.01179720812293352 0.01172023945415941 0.01172023945415941 0.01172023945415941 0.01172023945415941 
0.01163445326920392 0.01163445326920392 0.01163445326920392 0.01163445326920392 0.01153972950050045 0.01153972950050045 0.01153972950050045 0.01153972950050045 0.01143593792057583 
0.01143593792057583 0.01143593792057583 0.01143593792057583 0.01132293816876796 0.01132293816876796 0.01132293816876796 0.01132293816876796 0.0112005798118159 0.0112005798118159 
0.0112005798118159 0.0112005798118159 0.0110687024465563 0.0110687024465563 0.0110687024465563 0.0110687024465563 0.01092713585441856 0.01092713585441856 0.01092713585441856 
0.01092713585441856 0.01077570021909504 0.01077570021909504 0.01077570021909504 0.01077570021909504 0.01061420642072725 0.01061420642072725 0.01061420642072725 0.01061420642072725 
0.0104424564222229 0.0104424564222229 0.0104424564222229 0.0104424564222229 0.01026024376597043 0.01026024376597043 0.01026024376597043 0.01026024376597043 0.01006735420228885 
0.01006735420228885 0.01006735420228885 0.01006735420228885 0.009863566474532329 0.009863566474532329 0.009863566474532329 0.009863566474532329 0.009648653289920837 0.009648653289920837 
0.009648653289920837 0.009648653289920837 0.0094223825099996 0.0094223825099996 0.0094223825099996 0.0094223825099996 0.009184518600238032 0.009184518600238032 0.009184518600238032 
0.009184518600238032 0.008934824384793143 0.008934824384793143 0.008934824384793143 0.008934824384793143 0.008673063160016641 0.008673063160016641 0.008673063160016641 0.008673063160016641 
0.008399001229050676 0.008399001229050676 0.008399001229050676 0.008399001229050676 0.00811241093000674 0.00811241093000674 0.00811241093000674 0.00811241093000674 0.007813074241973391 
0.007813074241973391 0.007813074241973391 0.007813074241973391 0.007500787066676201 0.007500787066676201 0.007500787066676201 0.007500787066676201 0.007175364299285855 0.007175364299285855 
0.007175364299285855 0.007175364299285855 0.006836645819920413 0.006836645819920413 0.006836645819920413 0.006836645819920413 0.006484503558129692 0.006484503558129692 0.006484503558129692 
0.006484503558129692 0.006118849806419854 0.006118849806419854 0.006118849806419854 0.006118849806419854 0.005739646986019352 0.005739646986019352 0.005739646986019352 0.005739646986019352 
0.005346919098952128 0.005346919098952128 0.005346919098952128 0.005346919098952128 0.004940765135388235 0.004940765135388235 0.004940765135388235 0.004940765135388235 0.004521374744452963 
0.004521374744452963 0.004521374744452963 0.004521374744452963 0.004089046520329228 0.004089046520329228 0.004089046520329228 0.004089046520329228 0.003644209303534428 0.003644209303534428 
0.003644209303534428 0.003644209303534428 0.003187446949301367 0.003187446949301367 0.003187446949301367 0.003187446949301367 0.002719527070141047 0.002719527070141047 0.002719527070141047 
0.002719527070141047 0.002241434316201529 0.002241434316201529 0.002241434316201529 0.002241434316201529 0.001754408812016207 0.001754408812016207 0.001754408812016207 0.001754408812016207 
0.0012599904139856 0.0012599904139856 0.0012599904139856 0.0012599904139856 0.0007600688001447418 0.0007600688001447418 0.0007600688001447418 0.0007600688001447418 0.0002567635863149357 
0.0002567635863149357 0.0002567635863149357 0.0002567635863149357 -0.000270568048710442 -0.000270568048710442 -0.000270568048710442 -0.000270568048710442 -0.0008738030332166146 -0.0008738030332166146 
-0.0008738030332166146 -0.0008738030332166146 -0.001589469901729658 -0.001589469901729658 -0.001589469901729658 -0.001589469901729658 -0.002439442399825092 -0.002439442399825092 -0.002439442399825092 
-0.002439442399825092 -0.003452791936063995 -0.003452791936063995 -0.003452791936063995 -0.003452791936063995 -0.004670448757720878 -0.004670448757720878 -0.004670448757720878 -0.004670448757720878 
-0.006174175760050673 -0.006174175760050673 -0.006174175760050673 -0.006174175760050673 -0.008657630443845061 -0.008657630443845061 -0.008657630443845061 -0.008657630443845061 -0.02039879540009998 
-0.02039879540009998 -0.02039879540009998 -0.02039879540009998 -0.07481382429015675 -0.07481382429015675 -0.07481382429015675 -0.07481382429015675 -0.1967106694102651 -0.1967106694102651 
-0.1967106694102651 -0.1967106694102651 -0.3512467615470463 -0.3512467615470463 -0.3512467615470463 -0.3512467615470463 -0.4913235647420141 -0.4913235647420141 -0.4913235647420141 
-0.4913235647420141 -0.5986779697186076 -0.5986779697186076 -0.5986779697186076 -0.5986779697186076 -0.6743799427750187 -0.6743799427750187 -0.6743799427750187 -0.6743799427750187 
-0.7252494009820234 -0.7252494009820234 -0.7252494009820234 -0.7252494009820234 -0.7583024082891311 -0.7583024082891311 -0.7583024082891311 -0.7583024082891311 -0.7790832171254209 
-0.7790832171254209 -0.7790832171254209 -0.7790832171254209 -0.7914922919042887 -0.7914922919042887 -0.7914922919042887 -0.7914922919042887 -0.7981262384812644 -0.7981262384812644 
-0.7981262384812644 -0.7981262384812644 -0.8006792998815375 -0.8006792998815375 -0.8006792998815375 -0.8006792998815375 -0.8002578818526036 -0.8002578818526036 -0.8002578818526036 
-0.8002578818526036 -0.7975929258988026 -0.7975929258988026 -0.7975929258988026 -0.7975929258988026 -0.7931769456162219 -0.7931769456162219 -0.7931769456162219 -0.7931769456162219 
-0.7873473523923411 -0.7873473523923411 -0.7873473523923411 -0.7873473523923411 -0.7803394006846056 -0.7803394006846056 -0.7803394006846056 -0.7803394006846056 -0.7723207331779083 
-0.7723207331779083 -0.7723207331779083 -0.7723207331779083 -0.7634124901837637 -0.7634124901837637 -0.7634124901837637 -0.7634124901837637 -0.7537026556136965 -0.7537026556136965 
-0.7537026556136965 -0.7537026556136965 -0.7432541194675419 -0.7432541194675419 -0.7432541194675419 -0.7432541194675419 -0.7321096917884591 -0.7321096917884591 -0.7321096917884591 
-0.7321096917884591 -0.7202950422203563 -0.7202950422203563 -0.7202950422203563 -0.7202950422203563 -0.7078203139963497 -0.7078203139963497 -0.7078203139963497 -0.7078203139963497 
-0.694680353888367 -0.694680353888367 -0.694680353888367 -0.694680353888367 -0.6808541639212622 -0.6808541639212622 -0.6808541639212622 -0.6808541639212622 -0.6663037548128161 
-0.6663037548128161 -0.6663037548128161 -0.6663037548128161 -0.6509734934808697 -0.6509734934808697 -0.6509734934808697 -0.6509734934808697 -0.6347874494057432 -0.6347874494057432 
-0.6347874494057432 -0.6347874494057432 -0.6176324969151934 -0.6176324969151934 -0.6176324969151934 -0.6176324969151934 -0.5993482383349739 -0.5993482383349739 -0.5993482383349739 
-0.5993482383349739 -0.579708618472503 -0.579708618472503 -0.579708618472503 -0.579708618472503 -0.5583672815329622 -0.5583672815329622 -0.5583672815329622 -0.5583672815329622 
-0.5348197030251425 -0.5348197030251425 -0.5348197030251425 -0.5348197030251425 -0.5084014415700425 -0.5084014415700425 -0.5084014415700425 -0.5084014415700425 -0.4787545885091193 
-0.4787545885091193 -0.4787545885091193 -0.4787545885091193 -0.4464397586805591 -0.4464397586805591 -0.4464397586805591 -0.4464397586805591 -0.4109984114203929 -0.4109984114203929 
-0.4109984114203929 -0.4109984114203929 -0.3727219012998961 -0.3727219012998961 -0.3727219012998961 -0.3727219012998961 -0.3307125692259061 -0.3307125692259061 -0.3307125692259061 
-0.3307125692259061 -0.2813269124047704 -0.2813269124047704 -0.2813269124047704 -0.2813269124047704 -0.2133424574139353 -0.2133424574139353 -0.2133424574139353 -0.2133424574139353 
-0.1318734043924728 -0.1318734043924728 -0.1318734043924728 -0.1318734043924728 -0.05318538098892409 -0.05318538098892409 -0.05318538098892409 -0.05318538098892409 0.02868671454878174 
0.02868671454878174 0.02868671454878174 0.02868671454878174 0.1088803802876584 0.1088803802876584 0.1088803802876584 0.1088803802876584 0.184173054569461 0.184173054569461 
0.184173054569461 0.184173054569461 0.2573341050112208 0.2573341050112208 0.2573341050112208 0.2573341050112208 0.3124867738322318 0.3124867738322318 0.3124867738322318 
0.3124867738322318 0.3593090426055405 0.3593090426055405 0.3593090426055405 0.3593090426055405 0.4008139413027512 0.4008139413027512 0.4008139413027512 0.4008139413027512 
0.4384453214173241 0.4384453214173241 0.4384453214173241 0.4384453214173241 0.4728730720344914 0.4728730720344914 0.4728730720344914 0.4728730720344914 0.5042071033570208 
0.5042071033570208 0.5042071033570208 0.5042071033570208 0.5327277738969343 0.5327277738969343 0.5327277738969343 0.5327277738969343 0.5585054440610734 0.5585054440610734 
0.5585054440610734 0.5585054440610734 0.5815316965859553 0.5815316965859553 0.5815316965859553 0.5815316965859553 0.6021099128277638 0.6021099128277638 0.6021099128277638 
0.6021099128277638 0.6205457742547476 0.6205457742547476 0.6205457742547476 0.6205457742547476 0.6370648962987315 0.6370648962987315 0.6370648962987315 0.6370648962987315 
0.6518232843003724 0.6518232843003724 0.6518232843003724 0.6518232843003724 0.6649095346265017 0.6649095346265017 0.6649095346265017 0.6649095346265017 0.6763490244737598 
0.6763490244737598 0.6763490244737598 0.6763490244737598 0.6861000247488176 0.6861000247488176 0.6861000247488176 0.6861000247488176 0.6940480199581615 0.6940480199581615 
0.6940480199581615 0.6940480199581615 0.6999968676426095 0.6999968676426095 0.6999968676426095 0.6999968676426095 0.7036520098175034 0.7036520098175034 0.7036520098175034 
0.7036520098175034 0.7045857301587045 0.7045857301587045 0.7045857301587045 0.7045857301587045 0.7021936209960591 0.7021936209960591 0.7021936209960591 0.7021936209960591 
0.6956152073664207 0.6956152073664207 0.6956152073664207 0.6956152073664207 0.6836639156402279 0.6836639156402279 0.6836639156402279 0.6836639156402279 0.6647031720511015 
0.6647031720511015 0.6647031720511015 0.6647031720511015 0.6365405800920986 0.6365405800920986 0.6365405800920986 0.6365405800920986 0.5963593810611292 0.5963593810611292 
0.5963593810611292 0.5963593810611292 0.5407235259238183 0.5407235259238183 0.5407235259238183 0.5407235259238183 0.4659591135765971 0.4659591135765971 0.4659591135765971 
0.4659591135765971 0.3696703492001877 0.3696703492001877 0.3696703492001877 0.3696703492001877 0.2551189899032829 0.2551189899032829 0.2551189899032829 0.2551189899032829 
0.1384720400259468 0.1384720400259468 0.1384720400259468 0.1384720400259468 0.04846292573537309 0.04846292573537309 0.04846292573537309 0.04846292573537309 0.00398012210621693 
0.00398012210621693 0.00398012210621693 0.00398012210621693 -0.006826707482232809 -0.006826707482232809 -0.006826707482232809 -0.006826707482232809 -0.007041525643878149 -0.007041525643878149 
-0.007041525643878149 -0.007041525643878149 -0.005961117786285814 -0.005961117786285814 -0.005961117786285814 -0.005961117786285814 -0.004878467294874953 -0.004878467294874953 -0.004878467294874953 
-0.004878467294874953 -0.003883608886400611 -0.003883608886400611 -0.003883608886400611 -0.003883608886400611 -0.002982468517472822 -0.002982468517472822 -0.002982468517472822 -0.002982468517472822 
-0.002173524357654322 -0.002173524357654322 -0.002173524357654322 -0.002173524357654322 -0.001452953595834335 -0.001452953595834335 -0.001452953595834335 -0.001452953595834335 -0.0008158331902438738 
-0.0008158331902438738 -0.0008158331902438738 -0.0008158331902438738 -0.0002567635863149455 -0.0002567635863149455 -0.0002567635863149455 -0.0002567635863149455 0.0007279568234595071 0.0007279568234595071 
0.0007279568234595071 0.0007279568234595071 0.002056175195129499 0.002056175195129499 0.002056175195129499 0.002056175195129499 0.003322214381556025 0.003322214381556025 0.003322214381556025 
0.003322214381556025 0.004530252253142439 0.004530252253142439 0.004530252253142439 0.004530252253142439 0.005683688323367953 0.005683688323367953 0.005683688323367953 0.005683688323367953 
0.006785605254564148 0.006785605254564148 0.006785605254564148 0.006785605254564148 0.007838812429798891 0.007838812429798891 0.007838812429798891 0.007838812429798891 0.008845877523166941 
0.008845877523166941 0.008845877523166941 0.008845877523166941 0.00980915360419438 0.00980915360419438 0.00980915360419438 0.00980915360419438 0.01073080257827994 0.01073080257827994 
0.01073080257827994 0.01073080257827994 0.01161281550142814 0.01161281550142814 0.01161281550142814 0.01161281550142814 0.0124570302223313 0.0124570302223313 0.0124570302223313 
0.0124570302223313 0.01326514673672344 0.01326514673672344 0.01326514673672344 0.01326514673672344 0.01403874058116155 0.01403874058116155 0.01403874058116155 0.01403874058116155 
0.01477927454433885 0.01477927454433885 0.01477927454433885 0.01477927454433885 0.0154881089324066 0.0154881089324066 0.0154881089324066 0.0154881089324066 0.01616651058947685 
0.01616651058947685 0.01616651058947685 0.01616651058947685 0.01681566084453885 0.01681566084453885 0.01681566084453885 0.01681566084453885 0.01743666253064121 0.01743666253064121 
0.01743666253064121 0.01743666253064121 0.01803054620067126 0.01803054620067126 0.01803054620067126 0.01803054620067126 0.01859827564581248 0.01859827564581248 0.01859827564581248 
0.01859827564581248 0.01914075280727991 0.01914075280727991 0.01914075280727991 0.01914075280727991 0.0196588221587941 0.0196588221587941 0.0196588221587941 0.0196588221587941 
0.02015327462609798 0.02015327462609798 0.02015327462609798 0.02015327462609798 0.02062485110033954 0.02062485110033954 0.02062485110033954 0.02062485110033954 0.02107424559408148 
0.02107424559408148 0.02107424559408148 0.02107424559408148 0.02150210808183534 0.02150210808183534 0.02150210808183534 0.02150210808183534 0.02190904706117205 0.02190904706117205 
0.02190904706117205 0.02190904706117205 0.02229563186546674 0.02229563186546674 0.02229563186546674 0.02229563186546674 0.02266239475507899 0.02266239475507899 0.02266239475507899 
0.02266239475507899 0.0230098328101213 0.0230098328101213 0.0230098328101213 0.0230098328101213 0.02333840964483998 0.02333840964483998 0.02333840964483998 0.02333840964483998 
0.02364855696095607 0.02364855696095607 0.02364855696095607 0.02364855696095607 0.02394067595499732 0.02394067595499732 0.02394067595499732 0.02394067595499732 0.0242151385926676 
0.0242151385926676 0.0242151385926676 0.0242151385926676 0.02447228876157057 0.02447228876157057 0.02447228876157057 0.02447228876157057 0.02471244331211677 0.02471244331211677 
0.02471244331211677 0.02471244331211677 0.02493589299513643 0.02493589299513643 0.02493589299513643 0.02493589299513643 0.02514290330358594 0.02514290330358594 0.02514290330358594 
0.02514290330358594 0.02533371522473668 0.02533371522473668 0.02533371522473668 0.02533371522473668 0.02550854590835222 0.02550854590835222 0.02550854590835222 0.02550854590835222 
0.02566758925557818 0.02566758925557818 0.02566758925557818 0.02566758925557818 0.02581101643256824 0.02581101643256824 0.02581101643256824 0.02581101643256824 0.02593897631223961 
0.02593897631223961 0.02593897631223961 0.02593897631223961 0.02605159584698785 0.02605159584698785 0.02605159584698785 0.02605159584698785 0.02614898037477271 0.02614898037477271 
0.02614898037477271 0.02614898037477271 0.026231213861903 0.026231213861903 0.026231213861903 0.026231213861903 0.02629835910365726 0.02629835910365726 0.02629835910365726 
0.02629835910365726 0.02635045812606597 0.02635045812606597 0.02635045812606597 0.02635045812606597 0.02638753541089241 0.02638753541089241 0.02638753541089241 0.02638753541089241 
0.02640930307328206 0.02640930307328206 0.02640930307328206 0.02640930307328206 0.02641563354400167 0.02641563354400167 0.02641563354400167 0.02641563354400167 0.02640674915110082 
0.02640674915110082 0.02640674915110082 0.02640674915110082 0.02638268889714436 0.02638268889714436 0.02638268889714436 0.02638268889714436 0.0263433964499198 0.0263433964499198 
0.0263433964499198 0.0263433964499198 0.02628877397830208 0.02628877397830208 0.02628877397830208 0.02628877397830208 0.02621869698509462 0.02621869698509462 0.02621869698509462 
0.02621869698509462 0.02613301712617351 0.02613301712617351 0.02613301712617351 0.02613301712617351 0.0260315622667804 0.0260315622667804 0.0260315622667804 0.0260315622667804 
0.02591413592994499 0.02591413592994499 0.02591413592994499 0.02591413592994499 0.02578051656126394 0.02578051656126394 0.02578051656126394 0.02578051656126394 0.02563045668320464 
0.02563045668320464 0.02563045668320464 0.02563045668320464 0.0254636819465207 0.0254636819465207 0.0254636819465207 0.0254636819465207 0.02527989007386695 0.02527989007386695 
0.02527989007386695 0.02527989007386695 0.02507874968758471 0.02507874968758471 0.02507874968758471 0.02507874968758471 0.02485989901208081 0.02485989901208081 0.02485989901208081 
0.02485989901208081 0.02462294443984621 0.02462294443984621 0.02462294443984621 0.02462294443984621 0.02436745894866139 0.02436745894866139 0.02436745894866139 0.02436745894866139 
0.02409298035585389 0.02409298035585389 0.02409298035585389 0.02409298035585389 0.02379900939356164 0.02379900939356164 0.02379900939356164 0.02379900939356164 0.0234850075867695 
0.0234850075867695 0.0234850075867695 0.0234850075867695 0.0231503949133974 0.0231503949133974 0.0231503949133974 0.0231503949133974 0.02279454722287329 0.02279454722287329 
0.02279454722287329 0.02279454722287329 0.02241679338635378 0.02241679338635378 0.02241679338635378 0.02241679338635378 0.02201641214804007 0.02201641214804007 0.02201641214804007 
0.02201641214804007 0.02159262864274873 0.02159262864274873 0.02159262864274873 0.02159262864274873 0.02114461054002321 0.02114461054002321 0.02114461054002321 0.02114461054002321 
0.02067146376946886 0.02067146376946886 0.02067146376946886 0.02067146376946886 0.02017222777562585 0.02017222777562585 0.02017222777562585 0.02017222777562585 0.01964587024341326 
0.01964587024341326 0.01964587024341326 0.01964587024341326 0.01909128122692856 0.01909128122692856 0.01909128122692856 0.01909128122692856 0.01850726660504219 0.01850726660504219 
0.01850726660504219 0.01850726660504219 0.01789254077673149 0.01789254077673149 0.01789254077673149 0.01789254077673149 0.01724571849737688 0.01724571849737688 0.01724571849737688 
0.01724571849737688 0.0165653057443035 0.0165653057443035 0.0165653057443035 0.0165653057443035 0.01584968948576914 0.01584968948576914 0.01584968948576914 0.01584968948576914 
0.01509712621258001 0.01509712621258001 0.01509712621258001 0.01509712621258001 0.01430572907598136 0.01430572907598136 0.01430572907598136 0.01430572907598136 0.01347345346015173 
0.01347345346015173 0.01347345346015173 0.01347345346015173 0.01259808080374047 0.01259808080374047 0.01259808080374047 0.01259808080374047 0.01167720047436036 0.01167720047436036 
0.01167720047436036 0.01167720047436036 0.01070818949578366 0.01070818949578366 0.01070818949578366 0.01070818949578366 0.009688189934404191 0.009688189934404191 0.009688189934404191 
0.009688189934404191 0.008614083776274361 0.008614083776274361 0.008614083776274361 0.008614083776274361 0.007482465179235658 0.007482465179235658 0.007482465179235658 0.007482465179235658 
0.006289610082039959 0.006289610082039959 0.006289610082039959 0.006289610082039959 0.005031443316609603 0.005031443316609603 0.005031443316609603 0.005031443316609603 0.003703503489911596 
0.003703503489911596 0.003703503489911596 0.003703503489911596 0.002300885205579388 0.002300885205579388 0.002300885205579388 0.002300885205579388 0.0008158331902438444 0.0008158331902438444 
0.0008158331902438444 0.0008158331902438444 -0.0008738030332165908 -0.0008738030332165908 -0.0008738030332165908 -0.0008738030332165908 -0.002686867483122961 -0.002686867483122961 -0.002686867483122961 
-0.002686867483122961 -0.004763309062286299 -0.004763309062286299 -0.004763309062286299 -0.004763309062286299 -0.007165206454909004 -0.007165206454909004 -0.007165206454909004 -0.007165206454909004 
-0.009978784874793124 -0.009978784874793124 -0.009978784874793124 -0.009978784874793124 -0.01341128611862994 -0.01341128611862994 -0.01341128611862994 -0.01341128611862994 -0.02004220726138711 
-0.02004220726138711 -0.02004220726138711 -0.02004220726138711 -0.05574451916394475 -0.05574451916394475 -0.05574451916394475 -0.05574451916394475 -0.176704086852902 -0.176704086852902 
-0.176704086852902 -0.176704086852902 -0.3615896868196865 -0.3615896868196865 -0.3615896868196865 -0.3615896868196865 -0.5336602028718809 -0.5336602028718809 -0.5336602028718809 
-0.5336602028718809 -0.6593553716353329 -0.6593553716353329 -0.6593553716353329 -0.6593553716353329 -0.7408849573460895 -0.7408849573460895 -0.7408849573460895 -0.7408849573460895 
-0.7905791161193643 -0.7905791161193643 -0.7905791161193643 -0.7905791161193643 -0.81988540146462 -0.81988540146462 -0.81988540146462 -0.81988540146462 -0.8366903255073572 
-0.8366903255073572 -0.8366903255073572 -0.8366903255073572 -0.8458030084968633 -0.8458030084968633 -0.8458030084968633 -0.8458030084968633 -0.8500226342093784 -0.8500226342093784 
-0.8500226342093784 -0.8500226342093784 -0.8509694908126783 -0.8509694908126783 -0.8509694908126783 -0.8509694908126783 -0.8495992346226453 -0.8495992346226453 -0.8495992346226453 
-0.8495992346226453 -0.846496680005041 -0.846496680005041 -0.846496680005041 -0.846496680005041 -0.8420342832338374 -0.8420342832338374 -0.8420342832338374 -0.8420342832338374 
-0.8364593543991706 -0.8364593543991706 -0.8364593543991706 -0.8364593543991706 -0.829943709684513 -0.829943709684513 -0.829943709684513 -0.829943709684513 -0.8226117522405523 
-0.8226117522405523 -0.8226117522405523 -0.8226117522405523 -0.8145568752608657 -0.8145568752608657 -0.8145568752608657 -0.8145568752608657 -0.8058514392244774 -0.8058514392244774 
-0.8058514392244774 -0.8058514392244774 -0.7965530243107892 -0.7965530243107892 -0.7965530243107892 -0.7965530243107892 -0.7867084788419507 -0.7867084788419507 -0.7867084788419507 
-0.7867084788419507 -0.7763566039939909 -0.7763566039939909 -0.7763566039939909 -0.7763566039939909 -0.7655299797224263 -0.7655299797224263 -0.7655299797224263 -0.7655299797224263 
-0.7542562174405975 -0.7542562174405975 -0.7542562174405975 -0.7542562174405975 -0.7425588090893478 -0.7425588090893478 -0.7425588090893478 -0.7425588090893478 -0.7304576665285003 
-0.7304576665285003 -0.7304576665285003 -0.7304576665285003 -0.7179694010632407 -0.7179694010632407 -0.7179694010632407 -0.7179694010632407 -0.7051073652465468 -0.7051073652465468 
-0.7051073652465468 -0.7051073652465468 -0.6918814204283008 -0.6918814204283008 -0.6918814204283008 -0.6918814204283008 -0.678297367490438 -0.678297367490438 -0.678297367490438 
-0.678297367490438 -0.6643559449161232 -0.6643559449161232 -0.6643559449161232 -0.6643559449161232 -0.6500513666833101 -0.6500513666833101 -0.6500513666833101 -0.6500513666833101 
-0.6353692109520803 -0.6353692109520803 -0.6353692109520803 -0.6353692109520803 -0.6202836632259343 -0.6202836632259343 -0.6202836632259343 -0.6202836632259343 -0.6047551971350131 
-0.6047551971350131 -0.6047551971350131 -0.6047551971350131 -0.5887313007442784 -0.5887313007442784 -0.5887313007442784 -0.5887313007442784 -0.5721558746267497 -0.5721558746267497 
-0.5721558746267497 -0.5721558746267497 -0.5549504768822978 -0.5549504768822978 -0.5549504768822978 -0.5549504768822978 -0.5369766553815938 -0.5369766553815938 -0.5369766553815938 
-0.5369766553815938 -0.5180266401197816 -0.5180266401197816 -0.5180266401197816 -0.5180266401197816 -0.4976515352785772 -0.4976515352785772 -0.4976515352785772 -0.4976515352785772 
-0.4750332482336407 -0.4750332482336407 -0.4750332482336407 -0.4750332482336407 -0.4489541164321445 -0.4489541164321445 -0.4489541164321445 -0.4489541164321445 -0.4195986088880845 
-0.4195986088880845 -0.4195986088880845 -0.4195986088880845 -0.3883441966028401 -0.3883441966028401 -0.3883441966028401 -0.3883441966028401 -0.3546859239307998 -0.3546859239307998 
-0.3546859239307998 -0.3546859239307998 -0.3189283176386291 -0.3189283176386291 -0.3189283176386291 -0.3189283176386291 -0.2818329570682295 -0.2818329570682295 -0.2818329570682295 
-0.2818329570682295 -0.2403309830898865 -0.2403309830898865 -0.2403309830898865 -0.2403309830898865 -0.1777643842006668 -0.1777643842006668 -0.1777643842006668 -0.1777643842006668 
-0.1081302024582331 -0.1081302024582331 -0.1081302024582331 -0.1081302024582331 -0.03838473942632174 -0.03838473942632174 -0.03838473942632174 -0.03838473942632174 0.03168920502980781 
0.03168920502980781 0.03168920502980781 0.03168920502980781 0.09974950636952579 0.09974950636952579 0.09974950636952579 0.09974950636952579 0.1635540020087306 0.1635540020087306 
0.1635540020087306 0.1635540020087306 0.2237815532813903 0.2237815532813903 0.2237815532813903 0.2237815532813903 0.2751366700938968 0.2751366700938968 0.2751366700938968 
0.2751366700938968 0.316874495444081 0.316874495444081 0.316874495444081 0.316874495444081 0.3525323845275621 0.3525323845275621 0.3525323845275621 0.3525323845275621 