Title = Quad200
FileType = Solution
Variables = q
Zone T = Quad200
ZoneType = FETriangle
Nodes = 160000
Elements = 80000
DataPacking = Block
StrandID = 7
SolutionTime = 0.6000000000000001
0.5968027658004902 0.5968027658004902 0.5968027658004902 0.5968027658004902 0.5999652082541334 0.5999652082541334 0.5999652082541334 0.5999652082541334 0.6030282073734463 0.6030282073734463 
0.6030282073734463 0.6030282073734463 0.6059911478227695 0.6059911478227695 0.6059911478227695 0.6059911478227695 0.6088533779870351 0.6088533779870351 0.6088533779870351 
0.6088533779870351 0.6116141984842109 0.6116141984842109 0.6116141984842109 0.6116141984842109 0.6142728489438024 0.6142728489438024 0.6142728489438024 0.6142728489438024 
0.6168284921535407 0.6168284921535407 0.6168284921535407 0.6168284921535407 0.6192801932124907 0.6192801932124907 0.6192801932124907 0.6192801932124907 0.6216268872716479 
0.6216268872716479 0.6216268872716479 0.6216268872716479 0.6238673187603654 0.6238673187603654 0.6238673187603654 0.6238673187603654 0.6259999083940331 0.6259999083940331 
0.6259999083940331 0.6259999083940331 0.6280224416208762 0.6280224416208762 0.6280224416208762 0.6280224416208762 0.6299313325594291 0.6299313325594291 0.6299313325594291 
0.6299313325594291 0.6317199224203576 0.6317199224203576 0.6317199224203576 0.6317199224203576 0.6333746787850654 0.6333746787850654 0.6333746787850654 0.6333746787850654 
0.6348670277319227 0.6348670277319227 0.6348670277319227 0.6348670277319227 0.6361364722935854 0.6361364722935854 0.6361364722935854 0.6361364722935854 0.6370569788953546 
0.6370569788953546 0.6370569788953546 0.6370569788953546 0.6373722978906325 0.6373722978906325 0.6373722978906325 0.6373722978906325 0.636577691309404 0.636577691309404 
0.636577691309404 0.636577691309404 0.633714497034311 0.633714497034311 0.633714497034311 0.633714497034311 0.6270258565037115 0.6270258565037115 0.6270258565037115 
0.6270258565037115 0.6134277044664831 0.6134277044664831 0.6134277044664831 0.6134277044664831 0.5878085957133325 0.5878085957133325 0.5878085957133325 0.5878085957133325 
0.5424264419602662 0.5424264419602662 0.5424264419602662 0.5424264419602662 0.4673877986287561 0.4673877986287561 0.4673877986287561 0.4673877986287561 0.3546243078976177 
0.3546243078976177 0.3546243078976177 0.3546243078976177 0.2091635586606965 0.2091635586606965 0.2091635586606965 0.2091635586606965 0.06956203809365491 0.06956203809365491 
0.06956203809365491 0.06956203809365491 0.01069470522176945 0.01069470522176945 0.01069470522176945 0.01069470522176945 0.006494526943455052 0.006494526943455052 0.006494526943455052 
0.006494526943455052 0.006518385368209545 0.006518385368209545 0.006518385368209545 0.006518385368209545 0.006579928757028009 0.006579928757028009 0.006579928757028009 0.006579928757028009 
0.006638157105322392 0.006638157105322392 0.006638157105322392 0.006638157105322392 0.006692924706831421 0.006692924706831421 0.006692924706831421 0.006692924706831421 0.006744359394228003 
0.006744359394228003 0.006744359394228003 0.006744359394228003 0.006792578864765217 0.006792578864765217 0.006792578864765217 0.006792578864765217 0.006837689226840435 0.006837689226840435 
0.006837689226840435 0.006837689226840435 0.00687978570753507 0.00687978570753507 0.00687978570753507 0.00687978570753507 0.006918953290714015 0.006918953290714015 0.006918953290714015 
0.006918953290714015 0.006955267272096288 0.006955267272096288 0.006955267272096288 0.006955267272096288 0.006988793738933064 0.006988793738933064 0.006988793738933064 0.006988793738933064 
0.007019589984799833 0.007019589984799833 0.007019589984799833 0.007019589984799833 0.007047704888661727 0.007047704888661727 0.007047704888661727 0.007047704888661727 0.007073179393851545 
0.007073179393851545 0.007073179393851545 0.007073179393851545 0.007096047804654972 0.007096047804654972 0.007096047804654972 0.007096047804654972 0.007116343644477827 0.007116343644477827 
0.007116343644477827 0.007116343644477827 0.007134128389002339 0.007134128389002339 0.007134128389002339 0.007134128389002339 0.007149623882709684 0.007149623882709684 0.007149623882709684 
0.007149623882709684 0.00715988776981044 0.00715988776981044 0.00715988776981044 0.00715988776981044 0.007163927287392461 0.007163927287392461 0.007163927287392461 0.007163927287392461 
0.00716444434900068 0.00716444434900068 0.00716444434900068 0.00716444434900068 0.007162155517094802 0.007162155517094802 0.007162155517094802 0.007162155517094802 0.007157221581728147 
0.007157221581728147 0.007157221581728147 0.007157221581728147 0.00714965671787985 0.00714965671787985 0.00714965671787985 0.00714965671787985 0.007139434600958877 0.007139434600958877 
0.007139434600958877 0.007139434600958877 0.007126513235112217 0.007126513235112217 0.007126513235112217 0.007126513235112217 0.007110840110086445 0.007110840110086445 0.007110840110086445 
0.007110840110086445 0.007092352923645872 0.007092352923645872 0.007092352923645872 0.007092352923645872 0.007070979302604288 0.007070979302604288 0.007070979302604288 0.007070979302604288 
0.007046636245921008 0.007046636245921008 0.007046636245921008 0.007046636245921008 0.007019229432567548 0.007019229432567548 0.007019229432567548 0.007019229432567548 0.006988652415452741 
0.006988652415452741 0.006988652415452741 0.006988652415452741 0.006954785696148998 0.006954785696148998 0.006954785696148998 0.006954785696148998 0.006917495667920404 0.006917495667920404 
0.006917495667920404 0.006917495667920404 0.006876633410797191 0.006876633410797191 0.006876633410797191 0.006876633410797191 0.006832033278270447 0.006832033278270447 0.006832033278270447 
0.006832033278270447 0.006783501007596522 0.006783501007596522 0.006783501007596522 0.006783501007596522 0.006575922841606451 0.006575922841606451 0.006575922841606451 0.006575922841606451 
-0.01560246520529911 -0.01560246520529911 -0.01560246520529911 -0.01560246520529911 -0.1321495626126266 -0.1321495626126266 -0.1321495626126266 -0.1321495626126266 -0.2861728046136823 
-0.2861728046136823 -0.2861728046136823 -0.2861728046136823 -0.416209286171362 -0.416209286171362 -0.416209286171362 -0.416209286171362 -0.5073394663684438 -0.5073394663684438 
-0.5073394663684438 -0.5073394663684438 -0.5645747734763439 -0.5645747734763439 -0.5645747734763439 -0.5645747734763439 -0.5979192744797387 -0.5979192744797387 -0.5979192744797387 
-0.5979192744797387 -0.61619079140146 -0.61619079140146 -0.61619079140146 -0.61619079140146 -0.6255732811864019 -0.6255732811864019 -0.6255732811864019 -0.6255732811864019 
-0.6299434995528783 -0.6299434995528783 -0.6299434995528783 -0.6299434995528783 -0.6315719105892131 -0.6315719105892131 -0.6315719105892131 -0.6315719105892131 -0.6317251500213982 
-0.6317251500213982 -0.6317251500213982 -0.6317251500213982 -0.6310825496933172 -0.6310825496933172 -0.6310825496933172 -0.6310825496933172 -0.6299955933295404 -0.6299955933295404 
-0.6299955933295404 -0.6299955933295404 -0.628639569486126 -0.628639569486126 -0.628639569486126 -0.628639569486126 -0.6270994686538495 -0.6270994686538495 -0.6270994686538495 
-0.6270994686538495 -0.6254156087251144 -0.6254156087251144 -0.6254156087251144 -0.6254156087251144 -0.6236069537322613 -0.6236069537322613 -0.6236069537322613 -0.6236069537322613 
-0.6216825951750841 -0.6216825951750841 -0.6216825951750841 -0.6216825951750841 -0.619647184948249 -0.619647184948249 -0.619647184948249 -0.619647184948249 -0.6175034046123653 
-0.6175034046123653 -0.6175034046123653 -0.6175034046123653 -0.615253045788328 -0.615253045788328 -0.615253045788328 -0.615253045788328 -0.6128974690120166 -0.6128974690120166 
-0.6128974690120166 -0.6128974690120166 -0.6104377970129271 -0.6104377970129271 -0.6104377970129271 -0.6104377970129271 -0.6078749993387428 -0.6078749993387428 -0.6078749993387428 
-0.6078749993387428 -0.6052099339943361 -0.6052099339943361 -0.6052099339943361 -0.6052099339943361 -0.6024433721948543 -0.6024433721948543 -0.6024433721948543 -0.6024433721948543 
-0.5995760161283045 -0.5995760161283045 -0.5995760161283045 -0.5995760161283045 -0.5966085133588155 -0.5966085133588155 -0.5966085133588155 -0.5966085133588155 -0.5935414692105262 
-0.5935414692105262 -0.5935414692105262 -0.5935414692105262 -0.5903754576712034 -0.5903754576712034 -0.5903754576712034 -0.5903754576712034 -0.5871110310790248 -0.5871110310790248 
-0.5871110310790248 -0.5871110310790248 -0.5837487287553652 -0.5837487287553652 -0.5837487287553652 -0.5837487287553652 -0.580289084702464 -0.580289084702464 -0.580289084702464 
-0.580289084702464 -0.5767326344599339 -0.5767326344599339 -0.5767326344599339 -0.5767326344599339 -0.5730799211968054 -0.5730799211968054 -0.5730799211968054 -0.5730799211968054 
-0.5693315011026325 -0.5693315011026325 -0.5693315011026325 -0.5693315011026325 -0.565487948130851 -0.565487948130851 -0.565487948130851 -0.565487948130851 -0.5615498581393931 
-0.5615498581393931 -0.5615498581393931 -0.5615498581393931 -0.5575178524671371 -0.5575178524671371 -0.5575178524671371 -0.5575178524671371 -0.5533925809797378 -0.5533925809797378 
-0.5533925809797378 -0.5533925809797378 -0.5491747246144814 -0.5491747246144814 -0.5491747246144814 -0.5491747246144814 -0.5448649974508082 -0.5448649974508082 -0.5448649974508082 
-0.5448649974508082 -0.5404641483307714 -0.5404641483307714 -0.5404641483307714 -0.5404641483307714 -0.5359729620517338 -0.5359729620517338 -0.5359729620517338 -0.5359729620517338 
-0.5313922601516516 -0.5313922601516516 -0.5313922601516516 -0.5313922601516516 -0.5267229013049231 -0.5267229013049231 -0.5267229013049231 -0.5267229013049231 -0.5219657813429246 
-0.5219657813429246 -0.5219657813429246 -0.5219657813429246 -0.5171218329069438 -0.5171218329069438 -0.5171218329069438 -0.5171218329069438 -0.5121920247289869 -0.5121920247289869 
-0.5121920247289869 -0.5121920247289869 -0.5071773605136447 -0.5071773605136447 -0.5071773605136447 -0.5071773605136447 -0.5020788773526734 -0.5020788773526734 -0.5020788773526734 
-0.5020788773526734 -0.4968976435275956 -0.4968976435275956 -0.4968976435275956 -0.4968976435275956 -0.4916347554158614 -0.4916347554158614 -0.4916347554158614 -0.4916347554158614 
-0.4862913329620207 -0.4862913329620207 -0.4862913329620207 -0.4862913329620207 -0.4808685127161683 -0.4808685127161683 -0.4808685127161683 -0.4808685127161683 -0.4753674366174805 
-0.4753674366174805 -0.4753674366174805 -0.4753674366174805 -0.4697892332300606 -0.4697892332300606 -0.4697892332300606 -0.4697892332300606 -0.4641349855333649 -0.4641349855333649 
-0.4641349855333649 -0.4641349855333649 -0.458405674789216 -0.458405674789216 -0.458405674789216 -0.458405674789216 -0.4526020820171137 -0.4526020820171137 -0.4526020820171137 
-0.4526020820171137 -0.4467246147872095 -0.4467246147872095 -0.4467246147872095 -0.4467246147872095 -0.4407730033413078 -0.4407730033413078 -0.4407730033413078 -0.4407730033413078 
-0.4347457697983403 -0.4347457697983403 -0.4347457697983403 -0.4347457697983403 -0.4286393064846111 -0.4286393064846111 -0.4286393064846111 -0.4286393064846111 -0.4224462866013686 
-0.4224462866013686 -0.4224462866013686 -0.4224462866013686 -0.4161529600555226 -0.4161529600555226 -0.4161529600555226 -0.4161529600555226 -0.4097346349452933 -0.4097346349452933 
-0.4097346349452933 -0.4097346349452933 -0.4031480712430094 -0.4031480712430094 -0.4031480712430094 -0.4031480712430094 -0.3963189567307397 -0.3963189567307397 -0.3963189567307397 
-0.3963189567307397 -0.3891215744513242 -0.3891215744513242 -0.3891215744513242 -0.3891215744513242 -0.3813462618344681 -0.3813462618344681 -0.3813462618344681 -0.3813462618344681 
-0.3726481775706759 -0.3726481775706759 -0.3726481775706759 -0.3726481775706759 -0.3624679473532793 -0.3624679473532793 -0.3624679473532793 -0.3624679473532793 -0.3499104613889614 
-0.3499104613889614 -0.3499104613889614 -0.3499104613889614 -0.3335610623930761 -0.3335610623930761 -0.3335610623930761 -0.3335610623930761 -0.3112047155203011 -0.3112047155203011 
-0.3112047155203011 -0.3112047155203011 -0.2793859386377199 -0.2793859386377199 -0.2793859386377199 -0.2793859386377199 -0.2325853882463682 -0.2325853882463682 -0.2325853882463682 
-0.2325853882463682 -0.159898563888298 -0.159898563888298 -0.159898563888298 -0.159898563888298 -0.05223592893114729 -0.05223592893114729 -0.05223592893114729 -0.05223592893114729 
0.1107806652444597 0.1107806652444597 0.1107806652444597 0.1107806652444597 0.1972936798574498 0.1972936798574498 0.1972936798574498 0.1972936798574498 0.2578502860397647 
0.2578502860397647 0.2578502860397647 0.2578502860397647 0.2992060182769241 0.2992060182769241 0.2992060182769241 0.2992060182769241 0.3279168195719226 0.3279168195719226 
0.3279168195719226 0.3279168195719226 0.3484967083190305 0.3484967083190305 0.3484967083190305 0.3484967083190305 0.3638437905935926 0.3638437905935926 0.3638437905935926 
0.3638437905935926 0.3758419935524296 0.3758419935524296 0.3758419935524296 0.3758419935524296 0.3857108471772233 0.3857108471772233 0.3857108471772233 0.3857108471772233 
0.394231990656852 0.394231990656852 0.394231990656852 0.394231990656852 0.4019002567001009 0.4019002567001009 0.4019002567001009 0.4019002567001009 0.4090248108384326 
0.4090248108384326 0.4090248108384326 0.4090248108384326 0.4157962643015414 0.4157962643015414 0.4157962643015414 0.4157962643015414 0.4223305789544123 0.4223305789544123 
0.4223305789544123 0.4223305789544123 0.4286973405003599 0.4286973405003599 0.4286973405003599 0.4286973405003599 0.4349376753856593 0.4349376753856593 0.4349376753856593 
0.4349376753856593 0.4410754667733843 0.4410754667733843 0.4410754667733843 0.4410754667733843 0.4471242511579497 0.4471242511579497 0.4471242511579497 0.4471242511579497 
0.4530913887029181 0.4530913887029181 0.4530913887029181 0.4530913887029181 0.4589806095550996 0.4589806095550996 0.4589806095550996 0.4589806095550996 0.4647935298868456 
0.4647935298868456 0.4647935298868456 0.4647935298868456 0.4705305461678431 0.4705305461678431 0.4705305461678431 0.4705305461678431 0.4761913591103373 0.4761913591103373 
0.4761913591103373 0.4761913591103373 0.4817752788486614 0.4817752788486614 0.4817752788486614 0.4817752788486614 0.487281401897628 0.487281401897628 0.487281401897628 
0.487281401897628 0.4927087135082149 0.4927087135082149 0.4927087135082149 0.4927087135082149 0.4980561469027123 0.4980561469027123 0.4980561469027123 0.4980561469027123 
0.5033226177233003 0.5033226177233003 0.5033226177233003 0.5033226177233003 0.5085070442869178 0.5085070442869178 0.5085070442869178 0.5085070442869178 0.5136083597193802 
0.5136083597193802 0.5136083597193802 0.5136083597193802 0.5186255194231285 0.5186255194231285 0.5186255194231285 0.5186255194231285 0.5235575058269966 0.5235575058269966 
0.5235575058269966 0.5235575058269966 0.5284033315062275 0.5284033315062275 0.5284033315062275 0.5284033315062275 0.5331620412728364 0.5331620412728364 0.5331620412728364 
0.5331620412728364 0.5378327135611243 0.5378327135611243 0.5378327135611243 0.5378327135611243 0.5424144612788098 0.5424144612788098 0.5424144612788098 0.5424144612788098 
0.546906432208091 0.546906432208091 0.546906432208091 0.546906432208091 0.5513078089932979 0.5513078089932979 0.5513078089932979 0.5513078089932979 0.5556178087250735 
0.5556178087250735 0.5556178087250735 0.5556178087250735 0.5598356821164693 0.5598356821164693 0.5598356821164693 0.5598356821164693 0.5639607122577351 0.5639607122577351 
0.5639607122577351 0.5639607122577351 0.5679922129314656 0.5679922129314656 0.5679922129314656 0.5679922129314656 0.5719295264661634 0.5719295264661634 0.5719295264661634 
0.5719295264661634 0.5757720211031347 0.5757720211031347 0.5757720211031347 0.5757720211031347 0.5795190878484945 0.5795190878484945 0.5795190878484945 0.5795190878484945 
0.5831701367783069 0.5831701367783069 0.5831701367783069 0.5831701367783069 0.5867245927603042 0.5867245927603042 0.5867245927603042 0.5867245927603042 0.5901818905498508 
0.5901818905498508 0.5901818905498508 0.5901818905498508 0.593541469210526 0.593541469210526 0.593541469210526 0.593541469210526 0.599965208254133 0.599965208254133 
0.599965208254133 0.599965208254133 0.603223190359082 0.603223190359082 0.603223190359082 0.603223190359082 0.6063818536844749 0.6063818536844749 0.6063818536844749 
0.6063818536844749 0.6094405707837038 0.6094405707837038 0.6094405707837038 0.6094405707837038 0.6123986833347536 0.6123986833347536 0.6123986833347536 0.6123986833347536 
0.6152554914817557 0.6152554914817557 0.6152554914817557 0.6152554914817557 0.6180102416450745 0.6180102416450745 0.6180102416450745 0.6180102416450745 0.6206621121818917 
0.6206621121818917 0.6206621121818917 0.6206621121818917 0.6232101953430468 0.6232101953430468 0.6232101953430468 0.6232101953430468 0.6256534713499182 0.6256534713499182 
0.6256534713499182 0.6256534713499182 0.6279907633990339 0.6279907633990339 0.6279907633990339 0.6279907633990339 0.6302206446009411 0.6302206446009411 0.6302206446009411 
0.6302206446009411 0.6323412251006498 0.6323412251006498 0.6323412251006498 0.6323412251006498 0.6343496503152386 0.6343496503152386 0.6343496503152386 0.6343496503152386 
0.6362409310590571 0.6362409310590571 0.6362409310590571 0.6362409310590571 0.6380052946924277 0.6380052946924277 0.6380052946924277 0.6380052946924277 0.6396224011945035 
0.6396224011945035 0.6396224011945035 0.6396224011945035 0.6410491839363123 0.6410491839363123 0.6410491839363123 0.6410491839363123 0.6421952164064635 0.6421952164064635 
0.6421952164064635 0.6421952164064635 0.6428744906241477 0.6428744906241477 0.6428744906241477 0.6428744906241477 0.6427143198561363 0.6427143198561363 0.6427143198561363 
0.6427143198561363 0.6409936595930844 0.6409936595930844 0.6409936595930844 0.6409936595930844 0.6363643106015131 0.6363643106015131 0.6363643106015131 0.6363643106015131 
0.626400063207285 0.626400063207285 0.626400063207285 0.626400063207285 0.6069454916982203 0.6069454916982203 0.6069454916982203 0.6069454916982203 0.5713930102173249 
0.5713930102173249 0.5713930102173249 0.5713930102173249 0.5105479857201065 0.5105479857201065 0.5105479857201065 0.5105479857201065 0.4149247952589457 0.4149247952589457 
0.4149247952589457 0.4149247952589457 0.2825470627732177 0.2825470627732177 0.2825470627732177 0.2825470627732177 0.1342620112898563 0.1342620112898563 0.1342620112898563 
0.1342620112898563 0.03344153269126784 0.03344153269126784 0.03344153269126784 0.03344153269126784 0.01393147420913573 0.01393147420913573 0.01393147420913573 0.01393147420913573 
0.01340063826438186 0.01340063826438186 0.01340063826438186 0.01340063826438186 0.01350016643304942 0.01350016643304942 0.01350016643304942 0.01350016643304942 0.01360253263144976 
0.01360253263144976 0.01360253263144976 0.01360253263144976 0.01369840080875609 0.01369840080875609 0.01369840080875609 0.01369840080875609 0.0137878902412755 0.0137878902412755 
0.0137878902412755 0.0137878902412755 0.01387123862335401 0.01387123862335401 0.01387123862335401 0.01387123862335401 0.01394866300653523 0.01394866300653523 0.01394866300653523 
0.01394866300653523 0.01402035917786223 0.01402035917786223 0.01402035917786223 0.01402035917786223 0.01408650299678621 0.01408650299678621 0.01408650299678621 0.01408650299678621 
0.01414725159734991 0.01414725159734991 0.01414725159734991 0.01414725159734991 0.01420274443777484 0.01420274443777484 0.01420274443777484 0.01420274443777484 0.01425310421116855 
0.01425310421116855 0.01425310421116855 0.01425310421116855 0.01429843763278848 0.01429843763278848 0.01429843763278848 0.01429843763278848 0.01433883613673372 0.01433883613673372 
0.01433883613673372 0.01433883613673372 0.01437437662828824 0.01437437662828824 0.01437437662828824 0.01437437662828824 0.01440512310070966 0.01440512310070966 0.01440512310070966 
0.01440512310070966 0.01443113351337881 0.01443113351337881 0.01443113351337881 0.01443113351337881 0.01445249360960491 0.01445249360960491 0.01445249360960491 0.01445249360960491 
0.01446840168839886 0.01446840168839886 0.01446840168839886 0.01446840168839886 0.01447831420183839 0.01447831420183839 0.01447831420183839 0.01447831420183839 0.01448282580837335 
0.01448282580837335 0.01448282580837335 0.01448282580837335 0.01448234375380763 0.01448234375380763 0.01448234375380763 0.01448234375380763 0.01447703276133817 0.01447703276133817 
0.01447703276133817 0.01447703276133817 0.01446692484031309 0.01446692484031309 0.01446692484031309 0.01446692484031309 0.01445199032039893 0.01445199032039893 0.01445199032039893 
0.01445199032039893 0.01443216848475558 0.01443216848475558 0.01443216848475558 0.01443216848475558 0.01440737813449525 0.01440737813449525 0.01440737813449525 0.01440737813449525 
0.01437752043753943 0.01437752043753943 0.01437752043753943 0.01437752043753943 0.01434247913130656 0.01434247913130656 0.01434247913130656 0.01434247913130656 0.01430211982055389 
0.01430211982055389 0.01430211982055389 0.01430211982055389 0.01425628889787666 0.01425628889787666 0.01425628889787666 0.01425628889787666 0.01420481222414924 0.01420481222414924 
0.01420481222414924 0.01420481222414924 0.01414749358915393 0.01414749358915393 0.01414749358915393 0.01414749358915393 0.01408411293708575 0.01408411293708575 0.01408411293708575 
0.01408411293708575 0.01401442432825646 0.01401442432825646 0.01401442432825646 0.01401442432825646 0.01393815359971652 0.01393815359971652 0.01393815359971652 0.01393815359971652 
0.0138549955531802 0.0138549955531802 0.0138549955531802 0.0138549955531802 0.01376246000963967 0.01376246000963967 0.01376246000963967 0.01376246000963967 0.01059037836222709 
0.01059037836222709 0.01059037836222709 0.01059037836222709 -0.05954522537082423 -0.05954522537082423 -0.05954522537082423 -0.05954522537082423 -0.2110610002832312 -0.2110610002832312 
-0.2110610002832312 -0.2110610002832312 -0.3563832246830588 -0.3563832246830588 -0.3563832246830588 -0.3563832246830588 -0.4650372137153226 -0.4650372137153226 -0.4650372137153226 
-0.4650372137153226 -0.5362757647617908 -0.5362757647617908 -0.5362757647617908 -0.5362757647617908 -0.5791803206783824 -0.5791803206783824 -0.5791803206783824 -0.5791803206783824 
-0.6034138163854204 -0.6034138163854204 -0.6034138163854204 -0.6034138163854204 -0.6163049178512208 -0.6163049178512208 -0.6163049178512208 -0.6163049178512208 -0.6226627308370243 
-0.6226627308370243 -0.6226627308370243 -0.6226627308370243 -0.6253936768223113 -0.6253936768223113 -0.6253936768223113 -0.6253936768223113 -0.6261590585842296 -0.6261590585842296 
-0.6261590585842296 -0.6261590585842296 -0.6258678933108351 -0.6258678933108351 -0.6258678933108351 -0.6258678933108351 -0.6249993157912018 -0.6249993157912018 -0.6249993157912018 
-0.6249993157912018 -0.6237964209493513 -0.6237964209493513 -0.6237964209493513 -0.6237964209493513 -0.6223784703247806 -0.6223784703247806 -0.6223784703247806 -0.6223784703247806 
-0.6208024722093204 -0.6208024722093204 -0.6208024722093204 -0.6208024722093204 -0.6190952196916375 -0.6190952196916375 -0.6190952196916375 -0.6190952196916375 -0.6172693491999239 
-0.6172693491999239 -0.6172693491999239 -0.6172693491999239 -0.615331073141873 -0.615331073141873 -0.615331073141873 -0.615331073141873 -0.6132837519805556 -0.6132837519805556 
-0.6132837519805556 -0.6132837519805556 -0.611129478528647 -0.611129478528647 -0.611129478528647 -0.611129478528647 -0.6088697560666818 -0.6088697560666818 -0.6088697560666818 
-0.6088697560666818 -0.6065057826150919 -0.6065057826150919 -0.6065057826150919 -0.6065057826150919 -0.6040385718043816 -0.6040385718043816 -0.6040385718043816 -0.6040385718043816 
-0.6014690086338454 -0.6014690086338454 -0.6014690086338454 -0.6014690086338454 -0.5987978798601431 -0.5987978798601431 -0.5987978798601431 -0.5987978798601431 -0.596025894283265 
-0.596025894283265 -0.596025894283265 -0.596025894283265 -0.5931536985548332 -0.5931536985548332 -0.5931536985548332 -0.5931536985548332 -0.5901818905498509 -0.5901818905498509 
-0.5901818905498509 -0.5901818905498509 -0.5871110310790248 -0.5871110310790248 -0.5871110310790248 -0.5871110310790248 -0.5839416542871296 -0.5839416542871296 -0.5839416542871296 
-0.5839416542871296 -0.5806742769321467 -0.5806742769321467 -0.5806742769321467 -0.5806742769321467 -0.5773094066797931 -0.5773094066797931 -0.5773094066797931 -0.5773094066797931 
-0.5738475495173029 -0.5738475495173029 -0.5738475495173029 -0.5738475495173029 -0.5702892163702677 -0.5702892163702677 -0.5702892163702677 -0.5702892163702677 -0.5666349289914341 
-0.5666349289914341 -0.5666349289914341 -0.5666349289914341 -0.5628852251786859 -0.5628852251786859 -0.5628852251786859 -0.5628852251786859 -0.5590406633702374 -0.5590406633702374 
-0.5590406633702374 -0.5590406633702374 -0.5551018266577805 -0.5551018266577805 -0.5551018266577805 -0.5551018266577805 -0.5510693262526619 -0.5510693262526619 -0.5510693262526619 
-0.5510693262526619 -0.5469438044357762 -0.5469438044357762 -0.5469438044357762 -0.5469438044357762 -0.5427259370185267 -0.5427259370185267 -0.5427259370185267 -0.5427259370185267 
-0.5384164353397509 -0.5384164353397509 -0.5384164353397509 -0.5384164353397509 -0.5340160478216778 -0.5340160478216778 -0.5340160478216778 -0.5340160478216778 -0.5295255611066905 
-0.5295255611066905 -0.5295255611066905 -0.5295255611066905 -0.5249458007956108 -0.5249458007956108 -0.5249458007956108 -0.5249458007956108 -0.5202776318072047 -0.5202776318072047 
-0.5202776318072047 -0.5202776318072047 -0.5155219583771424 -0.5155219583771424 -0.5155219583771424 -0.5155219583771424 -0.5106797237120896 -0.5106797237120896 -0.5106797237120896 
-0.5106797237120896 -0.505751909309643 -0.505751909309643 -0.505751909309643 -0.505751909309643 -0.5007395339451856 -0.5007395339451856 -0.5007395339451856 -0.5007395339451856 
-0.4956436523081556 -0.4956436523081556 -0.4956436523081556 -0.4956436523081556 -0.4904653532348409 -0.4904653532348409 -0.4904653532348409 -0.4904653532348409 -0.4852057574181197 
-0.4852057574181197 -0.4852057574181197 -0.4852057574181197 -0.4798660143498811 -0.4798660143498811 -0.4798660143498811 -0.4798660143498811 -0.4744472980204864 -0.4744472980204864 
-0.4744472980204864 -0.4744472980204864 -0.4689508004730182 -0.4689508004730182 -0.4689508004730182 -0.4689508004730182 -0.4633777215287253 -0.4633777215287253 -0.4633777215287253 
-0.4633777215287253 -0.4577292515784331 -0.4577292515784331 -0.4577292515784331 -0.4577292515784331 -0.4520065417662134 -0.4520065417662134 -0.4520065417662134 -0.4520065417662134 
-0.4462106512852802 -0.4462106512852802 -0.4462106512852802 -0.4462106512852802 -0.4403424533101502 -0.4403424533101502 -0.4403424533101502 -0.4403424533101502 -0.4344024666284905 
-0.4344024666284905 -0.4344024666284905 -0.4344024666284905 -0.4283905547496383 -0.4283905547496383 -0.4283905547496383 -0.4283905547496383 -0.4223053904649746 -0.4223053904649746 
-0.4223053904649746 -0.4223053904649746 -0.416143508697793 -0.416143508697793 -0.416143508697793 -0.416143508697793 -0.4098976428421617 -0.4098976428421617 -0.4098976428421617 
-0.4098976428421617 -0.4035538575950127 -0.4035538575950127 -0.4035538575950127 -0.4035538575950127 -0.3970866341304053 -0.3970866341304053 -0.3970866341304053 -0.3970866341304053 
-0.3904504708447917 -0.3904504708447917 -0.3904504708447917 -0.3904504708447917 -0.3835658362836042 -0.3835658362836042 -0.3835658362836042 -0.3835658362836042 -0.3762959667572479 
-0.3762959667572479 -0.3762959667572479 -0.3762959667572479 -0.3684091551267064 -0.3684091551267064 -0.3684091551267064 -0.3684091551267064 -0.359518493589544 -0.359518493589544 
-0.359518493589544 -0.359518493589544 -0.3489872186784265 -0.3489872186784265 -0.3489872186784265 -0.3489872186784265 -0.3357820969799877 -0.3357820969799877 -0.3357820969799877 
-0.3357820969799877 -0.3182475824622161 -0.3182475824622161 -0.3182475824622161 -0.3182475824622161 -0.2937534420307598 -0.2937534420307598 -0.2937534420307598 -0.2937534420307598 
-0.2581289943781004 -0.2581289943781004 -0.2581289943781004 -0.2581289943781004 -0.2051122289876118 -0.2051122289876118 -0.2051122289876118 -0.2051122289876118 -0.1239356503458815 
-0.1239356503458815 -0.1239356503458815 -0.1239356503458815 0.01973679206781232 0.01973679206781232 0.01973679206781232 0.01973679206781232 0.1459118122332274 0.1459118122332274 
0.1459118122332274 0.1459118122332274 0.2275637052123872 0.2275637052123872 0.2275637052123872 0.2275637052123872 0.2808384476569656 0.2808384476569656 0.2808384476569656 
0.2808384476569656 0.3177942341304232 0.3177942341304232 0.3177942341304232 0.3177942341304232 0.3439707933140975 0.3439707933140975 0.3439707933140975 0.3439707933140975 
0.3630831355739661 0.3630831355739661 0.3630831355739661 0.3630831355739661 0.3775879349518168 0.3775879349518168 0.3775879349518168 0.3775879349518168 0.3891063754894913 
0.3891063754894913 0.3891063754894913 0.3891063754894913 0.3987009779745901 0.3987009779745901 0.3987009779745901 0.3987009779745901 0.4070607778825149 0.4070607778825149 
0.4070607778825149 0.4070607778825149 0.4146271713519803 0.4146271713519803 0.4146271713519803 0.4146271713519803 0.4216793327785965 0.4216793327785965 0.4216793327785965 
0.4216793327785965 0.4283915933183263 0.4283915933183263 0.4283915933183263 0.4283915933183263 0.4348714296852144 0.4348714296852144 0.4348714296852144 0.4348714296852144 
0.4411842345645171 0.4411842345645171 0.4411842345645171 0.4411842345645171 0.4473692202231812 0.4473692202231812 0.4473692202231812 0.4473692202231812 0.4534495172492043 
0.4534495172492043 0.4534495172492043 0.4534495172492043 0.4594384462275345 0.4594384462275345 0.4594384462275345 0.4594384462275345 0.4653433894820481 0.4653433894820481 
0.4653433894820481 0.4653433894820481 0.4711681879958519 0.4711681879958519 0.4711681879958519 0.4711681879958519 0.476914588074567 0.476914588074567 0.476914588074567 
0.476914588074567 0.482583108225694 0.482583108225694 0.482583108225694 0.482583108225694 0.4881735551984917 0.4881735551984917 0.4881735551984917 0.4881735551984917 