Title = Quad200
FileType = Solution
Variables = q
Zone T = Quad200
ZoneType = FETriangle
Nodes = 160000
Elements = 80000
DataPacking = Block
StrandID = 14
SolutionTime = 1.3
0.3115158944181978 0.3115158944181978 0.3115158944181978 0.3115158944181978 0.3131732721596514 0.3131732721596514 0.3131732721596514 0.3131732721596514 0.3147830447147836 0.3147830447147836 
0.3147830447147836 0.3147830447147836 0.3163454222662907 0.3163454222662907 0.3163454222662907 0.3163454222662907 0.3178606596954571 0.3178606596954571 0.3178606596954571 
0.3178606596954571 0.3193290510390161 0.3193290510390161 0.3193290510390161 0.3193290510390161 0.3207509248500323 0.3207509248500323 0.3207509248500323 0.3207509248500323 
0.3221266396817596 0.3221266396817596 0.3221266396817596 0.3221266396817596 0.3234565790261937 0.3234565790261937 0.3234565790261937 0.3234565790261937 0.3247411448774454 
0.3247411448774454 0.3247411448774454 0.3247411448774454 0.3259807486108524 0.3259807486108524 0.3259807486108524 0.3259807486108524 0.3271757969572738 0.3271757969572738 
0.3271757969572738 0.3271757969572738 0.328326669314161 0.328326669314161 0.328326669314161 0.328326669314161 0.3294336801924193 0.3294336801924193 0.3294336801924193 
0.3294336801924193 0.3304970168908349 0.3304970168908349 0.3304970168908349 0.3304970168908349 0.3315166370964953 0.3315166370964953 0.3315166370964953 0.3315166370964953 
0.3324921035923113 0.3324921035923113 0.3324921035923113 0.3324921035923113 0.3334223232445848 0.3334223232445848 0.3334223232445848 0.3334223232445848 0.3343051448044571 
0.3343051448044571 0.3343051448044571 0.3343051448044571 0.3351367550514964 0.3351367550514964 0.3351367550514964 0.3351367550514964 0.3359107962527187 0.3359107962527187 
0.3359107962527187 0.3359107962527187 0.3366171112969392 0.3366171112969392 0.3366171112969392 0.3366171112969392 0.337240008170505 0.337240008170505 0.337240008170505 
0.337240008170505 0.3377559264384338 0.3377559264384338 0.3377559264384338 0.3377559264384338 0.3381303902787668 0.3381303902787668 0.3381303902787668 0.3381303902787668 
0.3383141427592802 0.3383141427592802 0.3383141427592802 0.3383141427592802 0.3382384233564593 0.3382384233564593 0.3382384233564593 0.3382384233564593 0.3378096634324423 
0.3378096634324423 0.3378096634324423 0.3378096634324423 0.3369032480171222 0.3369032480171222 0.3369032480171222 0.3369032480171222 0.3353566783803104 0.3353566783803104 
0.3353566783803104 0.3353566783803104 0.3329625543210138 0.3329625543210138 0.3329625543210138 0.3329625543210138 0.329461808476619 0.329461808476619 0.329461808476619 
0.329461808476619 0.324537784230134 0.324537784230134 0.324537784230134 0.324537784230134 0.3178118586998163 0.3178118586998163 0.3178118586998163 0.3178118586998163 
0.3088416147469702 0.3088416147469702 0.3088416147469702 0.3088416147469702 0.2971232916963141 0.2971232916963141 0.2971232916963141 0.2971232916963141 0.2821014876905007 
0.2821014876905007 0.2821014876905007 0.2821014876905007 0.2631909532747593 0.2631909532747593 0.2631909532747593 0.2631909532747593 0.239818633634033 0.239818633634033 
0.239818633634033 0.239818633634033 0.2115016071689343 0.2115016071689343 0.2115016071689343 0.2115016071689343 0.1779945157853317 0.1779945157853317 0.1779945157853317 
0.1779945157853317 0.1395798291072072 0.1395798291072072 0.1395798291072072 0.1395798291072072 0.09764337011800639 0.09764337011800639 0.09764337011800639 0.09764337011800639 
0.05574303208244459 0.05574303208244459 0.05574303208244459 0.05574303208244459 0.02134366928410761 0.02134366928410761 0.02134366928410761 0.02134366928410761 0.005894811790906142 
0.005894811790906142 0.005894811790906142 0.005894811790906142 0.004107306859201672 0.004107306859201672 0.004107306859201672 0.004107306859201672 0.00405606469304324 0.00405606469304324 
0.00405606469304324 0.00405606469304324 0.004064989013293429 0.004064989013293429 0.004064989013293429 0.004064989013293429 0.004075584330732285 0.004075584330732285 0.004075584330732285 
0.004075584330732285 0.004083325418305226 0.004083325418305226 0.004083325418305226 0.004083325418305226 0.004086929575213654 0.004086929575213654 0.004086929575213654 0.004086929575213654 
0.004088616529463285 0.004088616529463285 0.004088616529463285 0.004088616529463285 0.004089081532134217 0.004089081532134217 0.004089081532134217 0.004089081532134217 0.004051691738194124 
0.004051691738194124 0.004051691738194124 0.004051691738194124 0.002156142211842301 0.002156142211842301 0.002156142211842301 0.002156142211842301 -0.01894278363548833 -0.01894278363548833 
-0.01894278363548833 -0.01894278363548833 -0.05890764638827876 -0.05890764638827876 -0.05890764638827876 -0.05890764638827876 -0.1029895517969026 -0.1029895517969026 -0.1029895517969026 
-0.1029895517969026 -0.1452030826556662 -0.1452030826556662 -0.1452030826556662 -0.1452030826556662 -0.1830032371234724 -0.1830032371234724 -0.1830032371234724 -0.1830032371234724 
-0.2155397434184861 -0.2155397434184861 -0.2155397434184861 -0.2155397434184861 -0.2427883340092938 -0.2427883340092938 -0.2427883340092938 -0.2427883340092938 -0.2651179083335291 
-0.2651179083335291 -0.2651179083335291 -0.2651179083335291 -0.2830707388571464 -0.2830707388571464 -0.2830707388571464 -0.2830707388571464 -0.2972461179259416 -0.2972461179259416 
-0.2972461179259416 -0.2972461179259416 -0.3082369716086287 -0.3082369716086287 -0.3082369716086287 -0.3082369716086287 -0.3165958283019598 -0.3165958283019598 -0.3165958283019598 
-0.3165958283019598 -0.3228179559104799 -0.3228179559104799 -0.3228179559104799 -0.3228179559104799 -0.3273345934317085 -0.3273345934317085 -0.3273345934317085 -0.3273345934317085 
-0.3305120739663246 -0.3305120739663246 -0.3305120739663246 -0.3305120739663246 -0.3326545185221955 -0.3326545185221955 -0.3326545185221955 -0.3326545185221955 -0.3340088379613755 
-0.3340088379613755 -0.3340088379613755 -0.3340088379613755 -0.3347711768436952 -0.3347711768436952 -0.3347711768436952 -0.3347711768436952 -0.335094042854681 -0.335094042854681 
-0.335094042854681 -0.335094042854681 -0.3350934885695002 -0.3350934885695002 -0.3350934885695002 -0.3350934885695002 -0.3348559870795747 -0.3348559870795747 -0.3348559870795747 
-0.3348559870795747 -0.334444485349231 -0.334444485349231 -0.334444485349231 -0.334444485349231 -0.3339036497081967 -0.3339036497081967 -0.3339036497081967 -0.3339036497081967 
-0.3332644409157633 -0.3332644409157633 -0.3332644409157633 -0.3332644409157633 -0.3325477947761734 -0.3325477947761734 -0.3325477947761734 -0.3325477947761734 -0.3317674930767568 
-0.3317674930767568 -0.3317674930767568 -0.3317674930767568 -0.3309323364050873 -0.3309323364050873 -0.3309323364050873 -0.3309323364050873 -0.3300477420707612 -0.3300477420707612 
-0.3300477420707612 -0.3300477420707612 -0.3291168865107259 -0.3291168865107259 -0.3291168865107259 -0.3291168865107259 -0.3281414992668025 -0.3281414992668025 -0.3281414992668025 
-0.3281414992668025 -0.3271223996713388 -0.3271223996713388 -0.3271223996713388 -0.3271223996713388 -0.3260598499377638 -0.3260598499377638 -0.3260598499377638 -0.3260598499377638 
-0.3249537815272023 -0.3249537815272023 -0.3249537815272023 -0.3249537815272023 -0.3238039368192098 -0.3238039368192098 -0.3238039368192098 -0.3238039368192098 -0.3226099559316186 
-0.3226099559316186 -0.3226099559316186 -0.3226099559316186 -0.321371429108747 -0.321371429108747 -0.321371429108747 -0.321371429108747 -0.3200879281559147 -0.3200879281559147 
-0.3200879281559147 -0.3200879281559147 -0.318759025514915 -0.318759025514915 -0.318759025514915 -0.318759025514915 -0.3173843062929963 -0.3173843062929963 -0.3173843062929963 
-0.3173843062929963 -0.3159633764623768 -0.3159633764623768 -0.3159633764623768 -0.3159633764623768 -0.314495869208479 -0.314495869208479 -0.314495869208479 -0.314495869208479 
-0.3129814507988997 -0.3129814507988997 -0.3129814507988997 -0.3129814507988997 -0.3114198272639099 -0.3114198272639099 -0.3114198272639099 -0.3114198272639099 -0.3098107536407016 
-0.3098107536407016 -0.3098107536407016 -0.3098107536407016 -0.3081540486892094 -0.3081540486892094 -0.3081540486892094 -0.3081540486892094 -0.3064496201090101 -0.3064496201090101 
-0.3064496201090101 -0.3064496201090101 -0.3046975086671059 -0.3046975086671059 -0.3046975086671059 -0.3046975086671059 -0.3028979642677522 -0.3028979642677522 -0.3028979642677522 
-0.3028979642677522 -0.3010515717121263 -0.3010515717121263 -0.3010515717121263 -0.3010515717121263 -0.2991594448186414 -0.2991594448186414 -0.2991594448186414 -0.2991594448186414 
-0.29722349569109 -0.29722349569109 -0.29722349569109 -0.29722349569109 -0.2952467454841582 -0.2952467454841582 -0.2952467454841582 -0.2952467454841582 -0.2932335560127841 
-0.2932335560127841 -0.2932335560127841 -0.2932335560127841 -0.2911895287715958 -0.2911895287715958 -0.2911895287715958 -0.2911895287715958 -0.2891207043472886 -0.2891207043472886 
-0.2891207043472886 -0.2891207043472886 -0.2870317741840348 -0.2870317741840348 -0.2870317741840348 -0.2870317741840348 -0.2849234954804568 -0.2849234954804568 -0.2849234954804568 
-0.2849234954804568 -0.2827903309605183 -0.2827903309605183 -0.2827903309605183 -0.2827903309605183 -0.2806198635117061 -0.2806198635117061 -0.2806198635117061 -0.2806198635117061 
-0.2783950081789697 -0.2783950081789697 -0.2783950081789697 -0.2783950081789697 -0.2760984000577175 -0.2760984000577175 -0.2760984000577175 -0.2760984000577175 -0.2737169924947098 
-0.2737169924947098 -0.2737169924947098 -0.2737169924947098 -0.2712449560511072 -0.2712449560511072 -0.2712449560511072 -0.2712449560511072 -0.2686840622766419 -0.2686840622766419 
-0.2686840622766419 -0.2686840622766419 -0.2660420307921236 -0.2660420307921236 -0.2660420307921236 -0.2660420307921236 -0.2633299770281502 -0.2633299770281502 -0.2633299770281502 
-0.2633299770281502 -0.2605599445193614 -0.2605599445193614 -0.2605599445193614 -0.2605599445193614 -0.2577430581526101 -0.2577430581526101 -0.2577430581526101 -0.2577430581526101 
-0.2548884342579347 -0.2548884342579347 -0.2548884342579347 -0.2548884342579347 -0.2520027405933075 -0.2520027405933075 -0.2520027405933075 -0.2520027405933075 -0.2490902071150649 
-0.2490902071150649 -0.2490902071150649 -0.2490902071150649 -0.2461528807012508 -0.2461528807012508 -0.2461528807012508 -0.2461528807012508 -0.2431909410045118 -0.2431909410045118 
-0.2431909410045118 -0.2431909410045118 -0.2402029529458006 -0.2402029529458006 -0.2402029529458006 -0.2402029529458006 -0.2371859602950302 -0.2371859602950302 -0.2371859602950302 
-0.2371859602950302 -0.2341353427770195 -0.2341353427770195 -0.2341353427770195 -0.2341353427770195 -0.231044365345729 -0.231044365345729 -0.231044365345729 -0.231044365345729 
-0.2279033362152577 -0.2279033362152577 -0.2279033362152577 -0.2279033362152577 -0.2246982609617107 -0.2246982609617107 -0.2246982609617107 -0.2246982609617107 -0.2214088385721631 
-0.2214088385721631 -0.2214088385721631 -0.2214088385721631 -0.2180056571954511 -0.2180056571954511 -0.2180056571954511 -0.2180056571954511 -0.2144462985973296 -0.2144462985973296 
-0.2144462985973296 -0.2144462985973296 -0.2106699524377267 -0.2106699524377267 -0.2106699524377267 -0.2106699524377267 -0.2065901891167627 -0.2065901891167627 -0.2065901891167627 
-0.2065901891167627 -0.2020852809755735 -0.2020852809755735 -0.2020852809755735 -0.2020852809755735 -0.1969852443594013 -0.1969852443594013 -0.1969852443594013 -0.1969852443594013 
-0.1910542974976431 -0.1910542974976431 -0.1910542974976431 -0.1910542974976431 -0.183966435364832 -0.183966435364832 -0.183966435364832 -0.183966435364832 -0.1752696564509249 
-0.1752696564509249 -0.1752696564509249 -0.1752696564509249 -0.1643293710877346 -0.1643293710877346 -0.1643293710877346 -0.1643293710877346 -0.1502290460807242 -0.1502290460807242 
-0.1502290460807242 -0.1502290460807242 -0.1315714009698729 -0.1315714009698729 -0.1315714009698729 -0.1315714009698729 -0.1060105792696764 -0.1060105792696764 -0.1060105792696764 
-0.1060105792696764 -0.06890041833881309 -0.06890041833881309 -0.06890041833881309 -0.06890041833881309 -0.008391880480491004 -0.008391880480491004 -0.008391880480491004 -0.008391880480491004 
0.06139911189081979 0.06139911189081979 0.06139911189081979 0.06139911189081979 0.1019528426927514 0.1019528426927514 0.1019528426927514 0.1019528426927514 0.1294871524098345 
0.1294871524098345 0.1294871524098345 0.1294871524098345 0.149512665640213 0.149512665640213 0.149512665640213 0.149512665640213 0.1646296980896054 0.1646296980896054 
0.1646296980896054 0.1646296980896054 0.1763442649456316 0.1763442649456316 0.1763442649456316 0.1763442649456316 0.1856339792072202 0.1856339792072202 0.1856339792072202 
0.1856339792072202 0.1931745085895128 0.1931745085895128 0.1931745085895128 0.1931745085895128 0.1994484453843238 0.1994484453843238 0.1994484453843238 0.1994484453843238 
0.2048057562405623 0.2048057562405623 0.2048057562405623 0.2048057562405623 0.2095013723543022 0.2095013723543022 0.2095013723543022 0.2095013723543022 0.2137206156980348 
0.2137206156980348 0.2137206156980348 0.2137206156980348 0.2175973962234178 0.2175973962234178 0.2175973962234178 0.2175973962234178 0.22122766881496 0.22122766881496 
0.22122766881496 0.22122766881496 0.2246795320325934 0.2246795320325934 0.2246795320325934 0.2246795320325934 0.2280008278523907 0.2280008278523907 0.2280008278523907 
0.2280008278523907 0.2312248382816361 0.2312248382816361 0.2312248382816361 0.2312248382816361 0.2343744977106015 0.2343744977106015 0.2343744977106015 0.2343744977106015 
0.2374654090461874 0.2374654090461874 0.2374654090461874 0.2374654090461874 0.2405080540346306 0.2405080540346306 0.2405080540346306 0.2405080540346306 0.2435093286329477 
0.2435093286329477 0.2435093286329477 0.2435093286329477 0.2464735665851507 0.2464735665851507 0.2464735665851507 0.2464735665851507 0.2494031835943576 0.2494031835943576 
0.2494031835943576 0.2494031835943576 0.252299046652568 0.252299046652568 0.252299046652568 0.252299046652568 0.2551606580138286 0.2551606580138286 0.2551606580138286 
0.2551606580138286 0.2579862385756777 0.2579862385756777 0.2579862385756777 0.2579862385756777 0.2607727977439444 0.2607727977439444 0.2607727977439444 0.2607727977439444 
0.2635162838973573 0.2635162838973573 0.2635162838973573 0.2635162838973573 0.2662119067291427 0.2662119067291427 0.2662119067291427 0.2662119067291427 0.2688547003454382 
0.2688547003454382 0.2688547003454382 0.2688547003454382 0.2714403335599944 0.2714403335599944 0.2714403335599944 0.2714403335599944 0.2739660618910461 0.2739660618910461 
0.2739660618910461 0.2739660618910461 0.2764315705797076 0.2764315705797076 0.2764315705797076 0.2764315705797076 0.2788393479379931 0.2788393479379931 0.2788393479379931 
0.2788393479379931 0.2811942763132917 0.2811942763132917 0.2811942763132917 0.2811942763132917 0.2835024167473411 0.2835024167473411 0.2835024167473411 0.2835024167473411 
0.2857693855936636 0.2857693855936636 0.2857693855936636 0.2857693855936636 0.2879989823797749 0.2879989823797749 0.2879989823797749 0.2879989823797749 0.290192616343477 
0.290192616343477 0.290192616343477 0.290192616343477 0.2923496075640655 0.2923496075640655 0.2923496075640655 0.2923496075640655 0.2944680019292154 0.2944680019292154 
0.2944680019292154 0.2944680019292154 0.2965454239680001 0.2965454239680001 0.2965454239680001 0.2965454239680001 0.2985796705820056 0.2985796705820056 0.2985796705820056 
0.2985796705820056 0.3005689893878062 0.3005689893878062 0.3005689893878062 0.3005689893878062 0.3025121268532273 0.3025121268532273 0.3025121268532273 0.3025121268532273 
0.3044082594127729 0.3044082594127729 0.3044082594127729 0.3044082594127729 0.3062568904419929 0.3062568904419929 0.3062568904419929 0.3062568904419929 0.3080577559844319 
0.3080577559844319 0.3080577559844319 0.3080577559844319 0.3098107536407015 0.3098107536407015 0.3098107536407015 0.3098107536407015 0.3131732721596512 0.3131732721596512 
0.3131732721596512 0.3131732721596512 0.3148789001824439 0.3148789001824439 0.3148789001824439 0.3148789001824439 0.316536831152372 0.316536831152372 0.316536831152372 
0.316536831152372 0.318147232936223 0.318147232936223 0.318147232936223 0.318147232936223 0.3197103170212731 0.3197103170212731 0.3197103170212731 0.3197103170212731 
0.3212263347703893 0.3212263347703893 0.3212263347703893 0.3212263347703893 0.3226955738789246 0.3226955738789246 0.3226955738789246 0.3226955738789246 0.3241183546813011 
0.3241183546813011 0.3241183546813011 0.3241183546813011 0.3254950259504138 0.3254950259504138 0.3254950259504138 0.3254950259504138 0.3268259596783952 0.3268259596783952 
0.3268259596783952 0.3268259596783952 0.3281115439706453 0.3281115439706453 0.3281115439706453 0.3281115439706453 0.3293521725278191 0.3293521725278191 0.3293521725278191 
0.3293521725278191 0.3305482280758607 0.3305482280758607 0.3305482280758607 0.3305482280758607 0.3317000553063728 0.3317000553063728 0.3317000553063728 0.3317000553063728 
0.332807916107743 0.332807916107743 0.332807916107743 0.332807916107743 0.333871915731161 0.333871915731161 0.333871915731161 0.333871915731161 0.3348918826299003 
0.3348918826299003 0.3348918826299003 0.3348918826299003 0.3358671766330175 0.3358671766330175 0.3358671766330175 0.3358671766330175 0.3367963895859729 0.3367963895859729 
0.3367963895859729 0.3367963895859729 0.3376768895944119 0.3376768895944119 0.3376768895944119 0.3376768895944119 0.3385041449399953 0.3385041449399953 0.3385041449399953 
0.3385041449399953 0.3392707475627557 0.3392707475627557 0.3392707475627557 0.3392707475627557 0.3399650402857224 0.3399650402857224 0.3399650402857224 0.3399650402857224 
0.3405692395765993 0.3405692395765993 0.3405692395765993 0.3405692395765993 0.3410569405616916 0.3410569405616916 0.3410569405616916 0.3410569405616916 0.3413898936099208 
0.3413898936099208 0.3413898936099208 0.3413898936099208 0.3415139592102386 0.3415139592102386 0.3415139592102386 0.3415139592102386 0.341354270278265 0.341354270278265 
0.341354270278265 0.341354270278265 0.3408098259787187 0.3408098259787187 0.3408098259787187 0.3408098259787187 0.3397471379520925 0.3397471379520925 0.3397471379520925 
0.3397471379520925 0.3379934866543327 0.3379934866543327 0.3379934866543327 0.3379934866543327 0.3353301163909987 0.3353301163909987 0.3353301163909987 0.3353301163909987 
0.3314858089979259 0.3314858089979259 0.3314858089979259 0.3314858089979259 0.3261314090950864 0.3261314090950864 0.3261314090950864 0.3261314090950864 0.3188761116755675 
0.3188761116755675 0.3188761116755675 0.3188761116755675 0.3092668272560947 0.3092668272560947 0.3092668272560947 0.3092668272560947 0.2967927668863471 0.2967927668863471 
0.2967927668863471 0.2967927668863471 0.2808986188837775 0.2808986188837775 0.2808986188837775 0.2808986188837775 0.2610118943950906 0.2610118943950906 0.2610118943950906 
0.2610118943950906 0.2365950801135369 0.2365950801135369 0.2365950801135369 0.2365950801135369 0.2072456122917767 0.2072456122917767 0.2072456122917767 0.2072456122917767 
0.1728936726821865 0.1728936726821865 0.1728936726821865 0.1728936726821865 0.1341836164647697 0.1341836164647697 0.1341836164647697 0.1341836164647697 0.09308709396119193 
0.09308709396119193 0.09308709396119193 0.09308709396119193 0.05357864694305028 0.05357864694305028 0.05357864694305028 0.05357864694305028 0.02266383880264131 0.02266383880264131 
0.02266383880264131 0.02266383880264131 0.009822767913373047 0.009822767913373047 0.009822767913373047 0.009822767913373047 0.008186772220290732 0.008186772220290732 0.008186772220290732 
0.008186772220290732 0.008108164062710112 0.008108164062710112 0.008108164062710112 0.008108164062710112 0.008115457053028222 0.008115457053028222 0.008115457053028222 0.008115457053028222 
0.008124946256299975 0.008124946256299975 0.008124946256299975 0.008124946256299975 0.008131750339788109 0.008131750339788109 0.008131750339788109 0.008131750339788109 0.008136092490215074 
0.008136092490215074 0.008136092490215074 0.008136092490215074 0.008138411685462543 0.008138411685462543 0.008138411685462543 0.008138411685462543 0.008138183136487235 0.008138183136487235 
0.008138183136487235 0.008138183136487235 0.008091108535066192 0.008091108535066192 0.008091108535066192 0.008091108535066192 0.006145968074443593 0.006145968074443593 0.006145968074443593 
0.006145968074443593 -0.01987142655562649 -0.01987142655562649 -0.01987142655562649 -0.01987142655562649 -0.06360023488016914 -0.06360023488016914 -0.06360023488016914 -0.06360023488016914 
-0.1088324998892283 -0.1088324998892283 -0.1088324998892283 -0.1088324998892283 -0.150845181672288 -0.150845181672288 -0.150845181672288 -0.150845181672288 -0.1878368282467858 
-0.1878368282467858 -0.1878368282467858 -0.1878368282467858 -0.2193334728407707 -0.2193334728407707 -0.2193334728407707 -0.2193334728407707 -0.2454985539838392 -0.2454985539838392 
-0.2454985539838392 -0.2454985539838392 -0.2667956966481305 -0.2667956966481305 -0.2667956966481305 -0.2667956966481305 -0.2838133159114916 -0.2838133159114916 -0.2838133159114916 
-0.2838133159114916 -0.2971696370080799 -0.2971696370080799 -0.2971696370080799 -0.2971696370080799 -0.3074610617897477 -0.3074610617897477 -0.3074610617897477 -0.3074610617897477 
-0.3152352170874239 -0.3152352170874239 -0.3152352170874239 -0.3152352170874239 -0.3209781603513815 -0.3209781603513815 -0.3209781603513815 -0.3209781603513815 -0.3251096993374852 
-0.3251096993374852 -0.3251096993374852 -0.3251096993374852 -0.3279836456957237 -0.3279836456957237 -0.3279836456957237 -0.3279836456957237 -0.3298913756712895 -0.3298913756712895 
-0.3298913756712895 -0.3298913756712895 -0.3310676037496203 -0.3310676037496203 -0.3310676037496203 -0.3310676037496203 -0.3316973889129822 -0.3316973889129822 -0.3316973889129822 
-0.3316973889129822 -0.3319235471158362 -0.3319235471158362 -0.3319235471158362 -0.3319235471158362 -0.3318539088158222 -0.3318539088158222 -0.3318539088158222 -0.3318539088158222 
-0.3315681641939953 -0.3315681641939953 -0.3315681641939953 -0.3315681641939953 -0.3311237393783428 -0.3311237393783428 -0.3311237393783428 -0.3311237393783428 -0.3305609977622103 
-0.3305609977622103 -0.3305609977622103 -0.3305609977622103 -0.3299076358018334 -0.3299076358018334 -0.3299076358018334 -0.3299076358018334 -0.3291821772366617 -0.3291821772366617 
-0.3291821772366617 -0.3291821772366617 -0.3283966654691604 -0.3283966654691604 -0.3283966654691604 -0.3283966654691604 -0.3275586787287733 -0.3275586787287733 -0.3275586787287733 
-0.3275586787287733 -0.3266727956779147 -0.3266727956779147 -0.3266727956779147 -0.3266727956779147 -0.3257416308127818 -0.3257416308127818 -0.3257416308127818 -0.3257416308127818 
-0.3247665452803577 -0.3247665452803577 -0.3247665452803577 -0.3247665452803577 -0.3237481213997622 -0.3237481213997622 -0.3237481213997622 -0.3237481213997622 -0.3226864709915787 
-0.3226864709915787 -0.3226864709915787 -0.3226864709915787 -0.3215814306346036 -0.3215814306346036 -0.3215814306346036 -0.3215814306346036 -0.3204326824368933 -0.3204326824368933 
-0.3204326824368933 -0.3204326824368933 -0.3192398272883902 -0.3192398272883902 -0.3192398272883902 -0.3192398272883902 -0.3180024287576305 -0.3180024287576305 -0.3180024287576305 
-0.3180024287576305 -0.3167200394447038 -0.3167200394447038 -0.3167200394447038 -0.3167200394447038 -0.3153922172469613 -0.3153922172469613 -0.3153922172469613 -0.3153922172469613 
-0.3140185361808264 -0.3140185361808264 -0.3140185361808264 -0.3140185361808264 -0.3125985947665302 -0.3125985947665302 -0.3125985947665302 -0.3125985947665302 -0.311132024299382 
-0.311132024299382 -0.311132024299382 -0.311132024299382 -0.3096184995704292 -0.3096184995704292 -0.3096184995704292 -0.3096184995704292 -0.3080577559844317 -0.3080577559844317 
-0.3080577559844317 -0.3080577559844317 -0.3064496201090101 -0.3064496201090101 -0.3064496201090101 -0.3064496201090101 -0.3047940664116838 -0.3047940664116838 -0.3047940664116838 
-0.3047940664116838 -0.3030913224790591 -0.3030913224790591 -0.3030913224790591 -0.3030913224790591 -0.3013420590409888 -0.3013420590409888 -0.3013420590409888 -0.3013420590409888 
-0.299547717613894 -0.299547717613894 -0.299547717613894 -0.299547717613894 -0.2977110378013528 -0.2977110378013528 -0.2977110378013528 -0.2977110378013528 -0.2958368220932448 
-0.2958368220932448 -0.2958368220932448 -0.2958368220932448 -0.2939328666504946 -0.2939328666504946 -0.2939328666504946 -0.2939328666504946 -0.2920107219287215 -0.2920107219287215 
-0.2920107219287215 -0.2920107219287215 -0.2900855038632033 -0.2900855038632033 -0.2900855038632033 -0.2900855038632033 -0.2881735551126853 -0.2881735551126853 -0.2881735551126853 
-0.2881735551126853 -0.2862869810737358 -0.2862869810737358 -0.2862869810737358 -0.2862869810737358 -0.284425744954413 -0.284425744954413 -0.284425744954413 -0.284425744954413 
-0.2825709879467331 -0.2825709879467331 -0.2825709879467331 -0.2825709879467331 -0.2806845421100278 -0.2806845421100278 -0.2806845421100278 -0.2806845421100278 -0.2787172857535649 
-0.2787172857535649 -0.2787172857535649 -0.2787172857535649 -0.2766229874199514 -0.2766229874199514 -0.2766229874199514 -0.2766229874199514 -0.2743707139024084 -0.2743707139024084 
-0.2743707139024084 -0.2743707139024084 -0.2719506070059548 -0.2719506070059548 -0.2719506070059548 -0.2719506070059548 -0.2693723084176605 -0.2693723084176605 -0.2693723084176605 
-0.2693723084176605 -0.2666588073564635 -0.2666588073564635 -0.2666588073564635 -0.2666588073564635 -0.26383924484652 -0.26383924484652 -0.26383924484652 -0.26383924484652 
-0.2609429525776257 -0.2609429525776257 -0.2609429525776257 -0.2609429525776257 -0.257995551120332 -0.257995551120332 -0.257995551120332 -0.257995551120332 -0.2550170244323132 
-0.2550170244323132 -0.2550170244323132 -0.2550170244323132 -0.2520212928418429 -0.2520212928418429 -0.2520212928418429 -0.2520212928418429 -0.2490167267640673 -0.2490167267640673 
-0.2490167267640673 -0.2490167267640673 -0.2460071233400705 -0.2460071233400705 -0.2460071233400705 -0.2460071233400705 -0.2429928070713773 -0.2429928070713773 -0.2429928070713773 
-0.2429928070713773 -0.2399716221698929 -0.2399716221698929 -0.2399716221698929 -0.2399716221698929 -0.2369396868300051 -0.2369396868300051 -0.2369396868300051 -0.2369396868300051 
-0.2338918445957492 -0.2338918445957492 -0.2338918445957492 -0.2338918445957492 -0.2308217619945594 -0.2308217619945594 -0.2308217619945594 -0.2308217619945594 -0.227721656197991 
-0.227721656197991 -0.227721656197991 -0.227721656197991 -0.2245815998641811 -0.2245815998641811 -0.2245815998641811 -0.2245815998641811 -0.2213883215877969 -0.2213883215877969 
-0.2213883215877969 -0.2213883215877969 -0.2181233737926315 -0.2181233737926315 -0.2181233737926315 -0.2181233737926315 -0.2147605055586257 -0.2147605055586257 -0.2147605055586257 
-0.2147605055586257 -0.2112620402908653 -0.2112620402908653 -0.2112620402908653 -0.2112620402908653 -0.2075738049271096 -0.2075738049271096 -0.2075738049271096 -0.2075738049271096 
-0.2036182758116063 -0.2036182758116063 -0.2036182758116063 -0.2036182758116063 -0.1992853540004684 -0.1992853540004684 -0.1992853540004684 -0.1992853540004684 -0.1944199933761125 
-0.1944199933761125 -0.1944199933761125 -0.1944199933761125 -0.1888055014747732 -0.1888055014747732 -0.1888055014747732 -0.1888055014747732 -0.1821405159460353 -0.1821405159460353 
-0.1821405159460353 -0.1821405159460353 -0.1740058783025256 -0.1740058783025256 -0.1740058783025256 -0.1740058783025256 -0.1638135445759868 -0.1638135445759868 -0.1638135445759868 
-0.1638135445759868 -0.1507197134625 -0.1507197134625 -0.1507197134625 -0.1507197134625 -0.1334576417661062 -0.1334576417661062 -0.1334576417661062 -0.1334576417661062 
-0.1099635525665764 -0.1099635525665764 -0.1099635525665764 -0.1099635525665764 -0.07636516579077027 -0.07636516579077027 -0.07636516579077027 -0.07636516579077027 -0.02334613157839876 
-0.02334613157839876 -0.02334613157839876 -0.02334613157839876 0.05535843202968563 0.05535843202968563 0.05535843202968563 0.05535843202968563 0.0984788643724669 0.0984788643724669 
0.0984788643724669 0.0984788643724669 0.1275590894121568 0.1275590894121568 0.1275590894121568 0.1275590894121568 0.1487574689271646 0.1487574689271646 0.1487574689271646 
0.1487574689271646 0.164812452024344 0.164812452024344 0.164812452024344 0.164812452024344 0.1772790598005105 0.1772790598005105 0.1772790598005105 0.1772790598005105 
0.1871659941957147 0.1871659941957147 0.1871659941957147 0.1871659941957147 0.1951748106218917 0.1951748106218917 0.1951748106218917 0.1951748106218917 0.2018110104013053 
0.2018110104013053 0.2018110104013053 0.2018110104013053 0.2074447438426724 0.2074447438426724 0.2074447438426724 0.2074447438426724 0.2123483785329951 0.2123483785329951 
0.2123483785329951 0.2123483785329951 0.2167219626468222 0.2167219626468222 0.2167219626468222 0.2167219626468222 0.2207115604219311 0.2207115604219311 0.2207115604219311 
0.2207115604219311 0.2244229286132984 0.2244229286132984 0.2244229286132984 0.2244229286132984 0.2279318871799132 0.2279318871799132 0.2279318871799132 0.2279318871799132 
0.2312922118320668 0.2312922118320668 0.2312922118320668 0.2312922118320668 0.2345416096056353 0.2345416096056353 0.2345416096056353 0.2345416096056353 0.2377062295344944 
0.2377062295344944 0.2377062295344944 0.2377062295344944 0.240803918123984 0.240803918123984 0.240803918123984 0.240803918123984 0.2438466345537136 0.2438466345537136 
0.2438466345537136 0.2438466345537136 0.2468421889539092 0.2468421889539092 0.2468421889539092 0.2468421889539092 0.2497954515815925 0.2497954515815925 0.2497954515815925 
0.2497954515815925 0.2527091762475454 0.2527091762475454 0.2527091762475454 0.2527091762475454 0.2555845517353675 0.2555845517353675 0.2555845517353675 0.2555845517353675 
0.2584215743611177 0.2584215743611177 0.2584215743611177 0.2584215743611177 0.2612193206475665 0.2612193206475665 0.2612193206475665 0.2612193206475665 0.263976187701985 