Title = RSC/Post/Linear_Advection_2D/Sine_Wave_2D/Quad100/
FileType = Solution
Variables = q
Zone T = RSC/Post/Linear_Advection_2D/Sine_Wave_2D/Quad100/
ZoneType = FETriangle
Nodes = 40000
Elements = 20000
DataPacking = Block
StrandID = 6
SolutionTime = 0.5
0.02885626375350756 0.02885626375350756 0.02885626375350756 0.02885626375350756 0.08289228149522596 0.08289228149522596 0.08289228149522596 0.08289228149522596 0.1366011612717639 0.1366011612717639 
0.1366011612717639 0.1366011612717639 0.1897709386718964 0.1897709386718964 0.1897709386718964 0.1897709386718964 0.242191776875186 0.242191776875186 0.242191776875186 
0.242191776875186 0.2936567947820475 0.2936567947820475 0.2936567947820475 0.2936567947820475 0.3439628834789324 0.3439628834789324 0.3439628834789324 0.3439628834789324 
0.3929115078164194 0.3929115078164194 0.3929115078164194 0.3929115078164194 0.4403094899367483 0.4403094899367483 0.4403094899367483 0.4403094899367483 0.4859697716585685 
0.4859697716585685 0.4859697716585685 0.4859697716585685 0.5297121527101221 0.5297121527101221 0.5297121527101221 0.5297121527101221 0.5713640018973918 0.5713640018973918 
0.5713640018973918 0.5713640018973918 0.6107609384005556 0.6107609384005556 0.6107609384005556 0.6107609384005556 0.6477474805099831 0.6477474805099831 0.6477474805099831 
0.6477474805099831 0.6821776592415125 0.6821776592415125 0.6821776592415125 0.6821776592415125 0.7139155944093433 0.7139155944093433 0.7139155944093433 0.7139155944093433 
0.7428360308830513 0.7428360308830513 0.7428360308830513 0.7428360308830513 0.7688248329123648 0.7688248329123648 0.7688248329123648 0.7688248329123648 0.7917794345688285 
0.7917794345688285 0.7917794345688285 0.7917794345688285 0.8116092445266634 0.8116092445266634 0.8116092445266634 0.8116092445266634 0.8282360035853455 0.8282360035853455 
0.8282360035853455 0.8282360035853455 0.8415940935229143 0.8415940935229143 0.8415940935229143 0.8415940935229143 0.8516307960611164 0.8516307960611164 0.8516307960611164 
0.8516307960611164 0.858306500920367 0.858306500920367 0.858306500920367 0.858306500920367 0.8615948621434255 0.8615948621434255 0.8615948621434255 0.8615948621434255 
0.8614829020708547 0.8614829020708547 0.8614829020708547 0.8614829020708547 0.8579710625579106 0.8579710625579106 0.8579710625579106 0.8579710625579106 0.8510732032307442 
0.8510732032307442 0.8510732032307442 0.8510732032307442 0.8408165467887874 0.8408165467887874 0.8408165467887874 0.8408165467887874 0.8272415715691974 0.8272415715691974 
0.8272415715691974 0.8272415715691974 0.8104018517973477 0.8104018517973477 0.8104018517973477 0.8104018517973477 0.7903638461538409 0.7903638461538409 0.7903638461538409 
0.7903638461538409 0.7672066354924605 0.7672066354924605 0.7672066354924605 0.7672066354924605 0.741021610744163 0.741021610744163 0.741021610744163 0.741021610744163 
0.7119121122388297 0.7119121122388297 0.7119121122388297 0.7119121122388297 0.679993021868196 0.679993021868196 0.679993021868196 0.679993021868196 0.6453903096995102 
0.6453903096995102 0.6453903096995102 0.6453903096995102 0.6082405368292261 0.6082405368292261 0.6082405368292261 0.6082405368292261 0.5686903164387462 0.5686903164387462 
0.5686903164387462 0.5686903164387462 0.5268957351791748 0.5268957351791748 0.5268957351791748 0.5268957351791748 0.4830217371686156 0.4830217371686156 0.4830217371686156 
0.4830217371686156 0.4372414730330926 0.4372414730330926 0.4372414730330926 0.4372414730330926 0.3897356165601377 0.3897356165601377 0.3897356165601377 0.3897356165601377 
0.340691651661884 0.340691651661884 0.340691651661884 0.340691651661884 0.2903031324617306 0.2903031324617306 0.2903031324617306 0.2903031324617306 0.2387689194246372 
0.2387689194246372 0.2387689194246372 0.2387689194246372 0.1862923945457183 0.1862923945457183 0.1862923945457183 0.1862923945457183 0.1330806586944268 0.1330806586944268 
0.1330806586944268 0.1330806586944268 0.07934371428203803 0.07934371428203803 0.07934371428203803 0.07934371428203803 0.02529363647807306 0.02529363647807306 0.02529363647807306 
0.02529363647807306 -0.02885626375350758 -0.02885626375350758 -0.02885626375350758 -0.02885626375350758 -0.08289228149522646 -0.08289228149522646 -0.08289228149522646 -0.08289228149522646 
-0.1366011612717643 -0.1366011612717643 -0.1366011612717643 -0.1366011612717643 -0.1897709386718973 -0.1897709386718973 -0.1897709386718973 -0.1897709386718973 -0.2421917768751871 
-0.2421917768751871 -0.2421917768751871 -0.2421917768751871 -0.2936567947820482 -0.2936567947820482 -0.2936567947820482 -0.2936567947820482 -0.3439628834789328 -0.3439628834789328 
-0.3439628834789328 -0.3439628834789328 -0.3929115078164193 -0.3929115078164193 -0.3929115078164193 -0.3929115078164193 -0.4403094899367493 -0.4403094899367493 -0.4403094899367493 
-0.4403094899367493 -0.4859697716585689 -0.4859697716585689 -0.4859697716585689 -0.4859697716585689 -0.5297121527101224 -0.5297121527101224 -0.5297121527101224 -0.5297121527101224 
-0.5713640018973923 -0.5713640018973923 -0.5713640018973923 -0.5713640018973923 -0.610760938400556 -0.610760938400556 -0.610760938400556 -0.610760938400556 -0.6477474805099834 
-0.6477474805099834 -0.6477474805099834 -0.6477474805099834 -0.6821776592415154 -0.6821776592415154 -0.6821776592415154 -0.6821776592415154 -0.7139155944093449 -0.7139155944093449 
-0.7139155944093449 -0.7139155944093449 -0.7428360308830519 -0.7428360308830519 -0.7428360308830519 -0.7428360308830519 -0.7688248329123648 -0.7688248329123648 -0.7688248329123648 
-0.7688248329123648 -0.791779434568828 -0.791779434568828 -0.791779434568828 -0.791779434568828 -0.8116092445266634 -0.8116092445266634 -0.8116092445266634 -0.8116092445266634 
-0.8282360035853451 -0.8282360035853451 -0.8282360035853451 -0.8282360035853451 -0.8415940935229136 -0.8415940935229136 -0.8415940935229136 -0.8415940935229136 -0.8516307960611158 
-0.8516307960611158 -0.8516307960611158 -0.8516307960611158 -0.8583065009203661 -0.8583065009203661 -0.8583065009203661 -0.8583065009203661 -0.8615948621434251 -0.8615948621434251 
-0.8615948621434251 -0.8615948621434251 -0.8614829020708542 -0.8614829020708542 -0.8614829020708542 -0.8614829020708542 -0.8579710625579102 -0.8579710625579102 -0.8579710625579102 
-0.8579710625579102 -0.851073203230744 -0.851073203230744 -0.851073203230744 -0.851073203230744 -0.8408165467887875 -0.8408165467887875 -0.8408165467887875 -0.8408165467887875 
-0.8272415715691963 -0.8272415715691963 -0.8272415715691963 -0.8272415715691963 -0.8104018517973464 -0.8104018517973464 -0.8104018517973464 -0.8104018517973464 -0.7903638461538406 
-0.7903638461538406 -0.7903638461538406 -0.7903638461538406 -0.7672066354924614 -0.7672066354924614 -0.7672066354924614 -0.7672066354924614 -0.7410216107441632 -0.7410216107441632 
-0.7410216107441632 -0.7410216107441632 -0.7119121122388293 -0.7119121122388293 -0.7119121122388293 -0.7119121122388293 -0.6799930218681963 -0.6799930218681963 -0.6799930218681963 
-0.6799930218681963 -0.6453903096995103 -0.6453903096995103 -0.6453903096995103 -0.6453903096995103 -0.6082405368292265 -0.6082405368292265 -0.6082405368292265 -0.6082405368292265 
-0.5686903164387466 -0.5686903164387466 -0.5686903164387466 -0.5686903164387466 -0.5268957351791754 -0.5268957351791754 -0.5268957351791754 -0.5268957351791754 -0.4830217371686154 
-0.4830217371686154 -0.4830217371686154 -0.4830217371686154 -0.4372414730330923 -0.4372414730330923 -0.4372414730330923 -0.4372414730330923 -0.3897356165601364 -0.3897356165601364 
-0.3897356165601364 -0.3897356165601364 -0.340691651661883 -0.340691651661883 -0.340691651661883 -0.340691651661883 -0.2903031324617308 -0.2903031324617308 -0.2903031324617308 
-0.2903031324617308 -0.2387689194246374 -0.2387689194246374 -0.2387689194246374 -0.2387689194246374 -0.1862923945457183 -0.1862923945457183 -0.1862923945457183 -0.1862923945457183 
-0.1330806586944268 -0.1330806586944268 -0.1330806586944268 -0.1330806586944268 -0.079343714282038 -0.079343714282038 -0.079343714282038 -0.079343714282038 -0.02529363647807304 
-0.02529363647807304 -0.02529363647807304 -0.02529363647807304 0.0287395837495314 0.0287395837495314 0.0287395837495314 0.0287395837495314 0.08255883566277887 0.08255883566277887 
0.08255883566277887 0.08255883566277887 0.1360522655692096 0.1360522655692096 0.1360522655692096 0.1360522655692096 0.1890087593398064 0.1890087593398064 0.1890087593398064 
0.1890087593398064 0.241219321887177 0.241219321887177 0.241219321887177 0.241219321887177 0.292477901973685 0.292477901973685 0.292477901973685 0.292477901973685 
0.3425822054015462 0.3425822054015462 0.3425822054015462 0.3425822054015462 0.3913344933756094 0.3913344933756094 0.3913344933756094 0.3913344933756094 0.4385423628880429 
0.4385423628880429 0.4385423628880429 0.4385423628880429 0.4840195060451051 0.4840195060451051 0.4840195060451051 0.4840195060451051 0.5275864453392858 0.5275864453392858 
0.5275864453392858 0.5275864453392858 0.5690712419650317 0.5690712419650317 0.5690712419650317 0.5690712419650317 0.6083101743826624 0.6083101743826624 0.6083101743826624 
0.6083101743826624 0.6451483844524876 0.6451483844524876 0.6451483844524876 0.6451483844524876 0.67944048858914 0.67944048858914 0.67944048858914 0.67944048858914 
0.7110511515241639 0.7110511515241639 0.7110511515241639 0.7110511515241639 0.7398556204124933 0.7398556204124933 0.7398556204124933 0.7398556204124933 0.7657402171749357 
0.7657402171749357 0.7657402171749357 0.7657402171749357 0.7886027871336172 0.7886027871336172 0.7886027871336172 0.7886027871336172 0.8083531021698254 0.8083531021698254 
0.8083531021698254 0.8083531021698254 0.8249132168131729 0.8249132168131729 0.8249132168131729 0.8249132168131729 0.8382177758567591 0.8382177758567591 0.8382177758567591 
0.8382177758567591 0.8482142722843143 0.8482142722843143 0.8482142722843143 0.8482142722843143 0.8548632544914037 0.8548632544914037 0.8548632544914037 0.8548632544914037 
0.8581384819828869 0.8581384819828869 0.8581384819828869 0.8581384819828869 0.8580270289321641 0.8580270289321641 0.8580270289321641 0.8580270289321641 0.8545293351935086 
0.8545293351935086 0.8545293351935086 0.8545293351935086 0.8476592045661621 0.8476592045661621 0.8476592045661621 0.8476592045661621 0.8374437503170468 0.8374437503170468 
0.8374437503170468 0.8374437503170468 0.8239232881770877 0.8239232881770877 0.8239232881770877 0.8239232881770877 0.8071511772334384 0.8071511772334384 0.8071511772334384 
0.8071511772334384 0.7871936093455449 0.7871936093455449 0.7871936093455449 0.7871936093455449 0.764129347916116 0.764129347916116 0.764129347916116 0.764129347916116 
0.7380494170479538 0.7380494170479538 0.7380494170479538 0.7380494170479538 0.7090567423134093 0.7090567423134093 0.7090567423134093 0.7090567423134093 0.6772657445541659 
0.6772657445541659 0.6772657445541659 0.6772657445541659 0.6428018883144544 0.6428018883144544 0.6428018883144544 0.6428018883144544 0.6058011866898139 0.6058011866898139 
0.6058011866898139 0.6058011866898139 0.5664096645455448 0.5664096645455448 0.5664096645455448 0.5664096645455448 0.5247827822232759 0.5247827822232759 0.5247827822232759 
0.5247827822232759 0.4810848220100198 0.4810848220100198 0.4810848220100198 0.4810848220100198 0.4354882397910387 0.4354882397910387 0.4354882397910387 0.4354882397910387 
0.3881729844452548 0.3881729844452548 0.3881729844452548 0.3881729844452548 0.3393257876692324 0.3393257876692324 0.3393257876692324 0.3393257876692324 0.2891394270324855 
0.2891394270324855 0.2891394270324855 0.2891394270324855 0.2378119651724808 0.2378119651724808 0.2378119651724808 0.2378119651724808 0.1855459681318932 0.1855459681318932 
0.1855459681318932 0.1855459681318932 0.1325477059229787 0.1325477059229787 0.1325477059229787 0.1325477059229787 0.07902633847407234 0.07902633847407234 0.07902633847407234 
0.07902633847407234 0.02519309017090873 0.02519309017090873 0.02519309017090873 0.02519309017090873 -0.02873958374953134 -0.02873958374953134 -0.02873958374953134 -0.02873958374953134 
-0.08255883566277941 -0.08255883566277941 -0.08255883566277941 -0.08255883566277941 -0.136052265569209 -0.136052265569209 -0.136052265569209 -0.136052265569209 -0.1890087593398063 
-0.1890087593398063 -0.1890087593398063 -0.1890087593398063 -0.2412193218871767 -0.2412193218871767 -0.2412193218871767 -0.2412193218871767 -0.2924779019736847 -0.2924779019736847 
-0.2924779019736847 -0.2924779019736847 -0.3425822054015462 -0.3425822054015462 -0.3425822054015462 -0.3425822054015462 -0.3913344933756094 -0.3913344933756094 -0.3913344933756094 
-0.3913344933756094 -0.4385423628880428 -0.4385423628880428 -0.4385423628880428 -0.4385423628880428 -0.4840195060451054 -0.4840195060451054 -0.4840195060451054 -0.4840195060451054 
-0.5275864453392859 -0.5275864453392859 -0.5275864453392859 -0.5275864453392859 -0.569071241965032 -0.569071241965032 -0.569071241965032 -0.569071241965032 -0.6083101743826624 
-0.6083101743826624 -0.6083101743826624 -0.6083101743826624 -0.6451483844524878 -0.6451483844524878 -0.6451483844524878 -0.6451483844524878 -0.6794404885891407 -0.6794404885891407 
-0.6794404885891407 -0.6794404885891407 -0.7110511515241652 -0.7110511515241652 -0.7110511515241652 -0.7110511515241652 -0.7398556204124952 -0.7398556204124952 -0.7398556204124952 
-0.7398556204124952 -0.7657402171749369 -0.7657402171749369 -0.7657402171749369 -0.7657402171749369 -0.7886027871336181 -0.7886027871336181 -0.7886027871336181 -0.7886027871336181 
-0.8083531021698256 -0.8083531021698256 -0.8083531021698256 -0.8083531021698256 -0.824913216813173 -0.824913216813173 -0.824913216813173 -0.824913216813173 -0.8382177758567588 
-0.8382177758567588 -0.8382177758567588 -0.8382177758567588 -0.8482142722843138 -0.8482142722843138 -0.8482142722843138 -0.8482142722843138 -0.8548632544914031 -0.8548632544914031 
-0.8548632544914031 -0.8548632544914031 -0.8581384819828863 -0.8581384819828863 -0.8581384819828863 -0.8581384819828863 -0.8580270289321636 -0.8580270289321636 -0.8580270289321636 
-0.8580270289321636 -0.8545293351935079 -0.8545293351935079 -0.8545293351935079 -0.8545293351935079 -0.8476592045661616 -0.8476592045661616 -0.8476592045661616 -0.8476592045661616 
-0.8374437503170463 -0.8374437503170463 -0.8374437503170463 -0.8374437503170463 -0.8239232881770869 -0.8239232881770869 -0.8239232881770869 -0.8239232881770869 -0.8071511772334375 
-0.8071511772334375 -0.8071511772334375 -0.8071511772334375 -0.7871936093455443 -0.7871936093455443 -0.7871936093455443 -0.7871936093455443 -0.7641293479161158 -0.7641293479161158 
-0.7641293479161158 -0.7641293479161158 -0.7380494170479543 -0.7380494170479543 -0.7380494170479543 -0.7380494170479543 -0.70905674231341 -0.70905674231341 -0.70905674231341 
-0.70905674231341 -0.6772657445541668 -0.6772657445541668 -0.6772657445541668 -0.6772657445541668 -0.6428018883144544 -0.6428018883144544 -0.6428018883144544 -0.6428018883144544 
-0.6058011866898143 -0.6058011866898143 -0.6058011866898143 -0.6058011866898143 -0.5664096645455448 -0.5664096645455448 -0.5664096645455448 -0.5664096645455448 -0.5247827822232765 
-0.5247827822232765 -0.5247827822232765 -0.5247827822232765 -0.4810848220100189 -0.4810848220100189 -0.4810848220100189 -0.4810848220100189 -0.4354882397910387 -0.4354882397910387 
-0.4354882397910387 -0.4354882397910387 -0.3881729844452547 -0.3881729844452547 -0.3881729844452547 -0.3881729844452547 -0.3393257876692323 -0.3393257876692323 -0.3393257876692323 
-0.3393257876692323 -0.289139427032487 -0.289139427032487 -0.289139427032487 -0.289139427032487 -0.2378119651724819 -0.2378119651724819 -0.2378119651724819 -0.2378119651724819 
-0.1855459681318936 -0.1855459681318936 -0.1855459681318936 -0.1855459681318936 -0.1325477059229783 -0.1325477059229783 -0.1325477059229783 -0.1325477059229783 -0.07902633847407214 
-0.07902633847407214 -0.07902633847407214 -0.07902633847407214 -0.0251930901709086 -0.0251930901709086 -0.0251930901709086 -0.0251930901709086 0.02850948173836279 0.02850948173836279 
0.02850948173836279 0.02850948173836279 0.08189956782351511 0.08189956782351511 0.08189956782351511 0.08189956782351511 0.1349664337308214 0.1349664337308214 0.1349664337308214 
0.1349664337308214 0.1875006487844906 0.1875006487844906 0.1875006487844906 0.1875006487844906 0.239294884438305 0.239294884438305 0.239294884438305 0.239294884438305 
0.2901447325066758 0.2901447325066758 0.2901447325066758 0.2901447325066758 0.3398495118703623 0.3398495118703623 0.3398495118703623 0.3398495118703623 0.3882130604731697 
0.3882130604731697 0.3882130604731697 0.3882130604731697 0.4350445094839662 0.4350445094839662 0.4350445094839662 0.4350445094839662 0.4801590365687601 0.4801590365687601 
0.4801590365687601 0.4801590365687601 0.523378595300015 0.523378595300015 0.523378595300015 0.523378595300015 0.564532617824556 0.564532617824556 0.564532617824556 
0.564532617824556 0.6034586880169641 0.6034586880169641 0.6034586880169641 0.6034586880169641 0.6400031824618192 0.6400031824618192 0.6400031824618192 0.6400031824618192 
0.674021876735139 0.674021876735139 0.674021876735139 0.674021876735139 0.7053805145922901 0.7053805145922901 0.7053805145922901 0.7053805145922901 0.7339553378160488 
0.7339553378160488 0.7339553378160488 0.7339553378160488 0.7596335746337459 0.7596335746337459 0.7596335746337459 0.7596335746337459 0.7823138847759329 0.7823138847759329 
0.7823138847759329 0.7823138847759329 0.8019067594201263 0.8019067594201263 0.8019067594201263 0.8019067594201263 0.8183348744412383 0.8183348744412383 0.8183348744412383 
0.8183348744412383 0.8315333955745723 0.8315333955745723 0.8315333955745723 0.8315333955745723 0.8414502342870462 0.8414502342870462 0.8414502342870462 0.8414502342870462 
0.8480462533468344 0.8480462533468344 0.8480462533468344 0.8480462533468344 0.8512954212801424 0.8512954212801424 0.8512954212801424 0.8512954212801424 0.8511849151055407 
0.8511849151055407 0.8511849151055407 0.8511849151055407 0.8477151709404154 0.8477151709404154 0.8477151709404154 0.8477151709404154 0.8408998822798109 0.8408998822798109 
0.8408998822798109 0.8408998822798109 0.8307659459544615 0.8307659459544615 0.8307659459544615 0.8307659459544615 0.8173533559812884 0.8173533559812884 0.8173533559812884 
0.8173533559812884 0.8007150457252856 0.8007150457252856 0.8007150457252856 0.8007150457252856 0.7809166789957126 0.7809166789957126 0.7809166789957126 0.7809166789957126 
0.7580363909010379 0.7580363909010379 0.7580363909010379 0.7580363909010379 0.7321644794853622 0.7321644794853622 0.7321644794853622 0.7321644794853622 0.7034030493632907 
0.7034030493632907 0.7034030493632907 0.7034030493632907 0.6718656087596677 0.6718656087596677 0.6718656087596677 0.6718656087596677 0.63767662154447 0.63767662154447 
0.63767662154447 0.63767662154447 0.600971016030773 0.600971016030773 0.600971016030773 0.600971016030773 0.5618936524743435 0.5618936524743435 0.5618936524743435 
0.5618936524743435 0.5205987513763899 0.5205987513763899 0.5205987513763899 0.5205987513763899 0.4772492848456993 0.4772492848456993 0.4772492848456993 0.4772492848456993 
0.4320163334221814 0.4320163334221814 0.4320163334221814 0.4320163334221814 0.3850784109001351 0.3850784109001351 0.3850784109001351 0.3850784109001351 0.3366207598158573 
0.3366207598158573 0.3366207598158573 0.3366207598158573 0.286834620379983 0.286834620379983 0.286834620379983 0.286834620379983 0.2359164757397415 0.2359164757397415 
0.2359164757397415 0.2359164757397415 0.1840672765497414 0.1840672765497414 0.1840672765497414 0.1840672765497414 0.1314916479115386 0.1314916479115386 0.1314916479115386 
0.1314916479115386 0.07839708181184882 0.07839708181184882 0.07839708181184882 0.07839708181184882 0.02499311824646766 0.02499311824646766 0.02499311824646766 0.02499311824646766 
-0.02850948173836272 -0.02850948173836272 -0.02850948173836272 -0.02850948173836272 -0.08189956782351544 -0.08189956782351544 -0.08189956782351544 -0.08189956782351544 -0.1349664337308211 
-0.1349664337308211 -0.1349664337308211 -0.1349664337308211 -0.1875006487844906 -0.1875006487844906 -0.1875006487844906 -0.1875006487844906 -0.2392948844383056 -0.2392948844383056 
-0.2392948844383056 -0.2392948844383056 -0.2901447325066769 -0.2901447325066769 -0.2901447325066769 -0.2901447325066769 -0.3398495118703627 -0.3398495118703627 -0.3398495118703627 
-0.3398495118703627 -0.3882130604731702 -0.3882130604731702 -0.3882130604731702 -0.3882130604731702 -0.4350445094839661 -0.4350445094839661 -0.4350445094839661 -0.4350445094839661 
-0.4801590365687601 -0.4801590365687601 -0.4801590365687601 -0.4801590365687601 -0.5233785953000147 -0.5233785953000147 -0.5233785953000147 -0.5233785953000147 -0.5645326178245562 
-0.5645326178245562 -0.5645326178245562 -0.5645326178245562 -0.6034586880169638 -0.6034586880169638 -0.6034586880169638 -0.6034586880169638 -0.6400031824618193 -0.6400031824618193 
-0.6400031824618193 -0.6400031824618193 -0.6740218767351398 -0.6740218767351398 -0.6740218767351398 -0.6740218767351398 -0.7053805145922913 -0.7053805145922913 -0.7053805145922913 
-0.7053805145922913 -0.7339553378160499 -0.7339553378160499 -0.7339553378160499 -0.7339553378160499 -0.7596335746337469 -0.7596335746337469 -0.7596335746337469 -0.7596335746337469 
-0.7823138847759333 -0.7823138847759333 -0.7823138847759333 -0.7823138847759333 -0.8019067594201266 -0.8019067594201266 -0.8019067594201266 -0.8019067594201266 -0.8183348744412386 
-0.8183348744412386 -0.8183348744412386 -0.8183348744412386 -0.8315333955745726 -0.8315333955745726 -0.8315333955745726 -0.8315333955745726 -0.841450234287046 -0.841450234287046 
-0.841450234287046 -0.841450234287046 -0.8480462533468339 -0.8480462533468339 -0.8480462533468339 -0.8480462533468339 -0.8512954212801418 -0.8512954212801418 -0.8512954212801418 
-0.8512954212801418 -0.8511849151055402 -0.8511849151055402 -0.8511849151055402 -0.8511849151055402 -0.8477151709404152 -0.8477151709404152 -0.8477151709404152 -0.8477151709404152 
-0.8408998822798106 -0.8408998822798106 -0.8408998822798106 -0.8408998822798106 -0.8307659459544612 -0.8307659459544612 -0.8307659459544612 -0.8307659459544612 -0.8173533559812879 
-0.8173533559812879 -0.8173533559812879 -0.8173533559812879 -0.8007150457252845 -0.8007150457252845 -0.8007150457252845 -0.8007150457252845 -0.7809166789957117 -0.7809166789957117 
-0.7809166789957117 -0.7809166789957117 -0.7580363909010377 -0.7580363909010377 -0.7580363909010377 -0.7580363909010377 -0.7321644794853622 -0.7321644794853622 -0.7321644794853622 
-0.7321644794853622 -0.7034030493632903 -0.7034030493632903 -0.7034030493632903 -0.7034030493632903 -0.6718656087596673 -0.6718656087596673 -0.6718656087596673 -0.6718656087596673 
-0.6376766215444698 -0.6376766215444698 -0.6376766215444698 -0.6376766215444698 -0.6009710160307729 -0.6009710160307729 -0.6009710160307729 -0.6009710160307729 -0.561893652474344 
-0.561893652474344 -0.561893652474344 -0.561893652474344 -0.5205987513763901 -0.5205987513763901 -0.5205987513763901 -0.5205987513763901 -0.4772492848456992 -0.4772492848456992 
-0.4772492848456992 -0.4772492848456992 -0.432016333422181 -0.432016333422181 -0.432016333422181 -0.432016333422181 -0.3850784109001351 -0.3850784109001351 -0.3850784109001351 
-0.3850784109001351 -0.3366207598158572 -0.3366207598158572 -0.3366207598158572 -0.3366207598158572 -0.2868346203799826 -0.2868346203799826 -0.2868346203799826 -0.2868346203799826 
-0.2359164757397409 -0.2359164757397409 -0.2359164757397409 -0.2359164757397409 -0.1840672765497412 -0.1840672765497412 -0.1840672765497412 -0.1840672765497412 -0.131491647911538 
-0.131491647911538 -0.131491647911538 -0.131491647911538 -0.07839708181184873 -0.07839708181184873 -0.07839708181184873 -0.07839708181184873 -0.02499311824646758 -0.02499311824646758 
-0.02499311824646758 -0.02499311824646758 0.02816686582751581 0.02816686582751581 0.02816686582751581 0.02816686582751581 0.08091707980640514 0.08091707980640514 0.08091707980640514 
0.08091707980640514 0.1333479510387959 0.1333479510387959 0.1333479510387959 0.1333479510387959 0.1852525588293205 0.1852525588293205 0.1852525588293205 0.1852525588293205 
0.2364260594039888 0.2364260594039888 0.2364260594039888 0.2364260594039888 0.2866664943349823 0.2866664943349823 0.2866664943349823 0.2866664943349823 0.3357755875782993 
0.3357755875782993 0.3357755875782993 0.3357755875782993 0.3835595279787192 0.3835595279787192 0.3835595279787192 0.3835595279787192 0.4298297341538869 0.4298297341538869 
0.4298297341538869 0.4298297341538869 0.4744035987388756 0.4744035987388756 0.4744035987388756 0.4744035987388756 0.5171052090540302 0.5171052090540302 0.5171052090540302 
0.5171052090540302 0.5577660413519469 0.5577660413519469 0.5577660413519469 0.5577660413519469 0.5962256259037129 0.5962256259037129 0.5962256259037129 0.5962256259037129 
0.6323321802996154 0.6323321802996154 0.6323321802996154 0.6323321802996154 0.6659432084649691 0.6659432084649691 0.6659432084649691 0.6659432084649691 0.6969260630270238 
0.6969260630270238 0.6969260630270238 0.6969260630270238 0.7251584688135428 0.7251584688135428 0.7251584688135428 0.7251584688135428 0.7505290054170461 0.7505290054170461 
0.7505290054170461 0.7505290054170461 0.7729375469202552 0.7729375469202552 0.7729375469202552 0.7729375469202552 0.7922956570473461 0.7922956570473461 0.7922956570473461 
0.7922956570473461 0.808526938181526 0.808526938181526 0.808526938181526 0.808526938181526 0.8215673328715252 0.8215673328715252 0.8215673328715252 0.8215673328715252 
0.8313653766370922 0.8313653766370922 0.8313653766370922 0.8313653766370922 0.8378824010757844 0.8378824010757844 0.8378824010757844 0.8378824010757844 0.8410926864694878 
0.8410926864694878 0.8410926864694878 0.8410926864694878 0.8409835632883934 0.8409835632883934 0.8409835632883934 0.8409835632883934 0.8375554621918433 0.8375554621918433 
0.8375554621918433 0.8375554621918433 0.8308219123287151 0.8308219123287151 0.8308219123287151 0.8308219123287151 0.8208094879440522 0.8208094879440522 0.8208094879440522 
0.8208094879440522 0.8075577035026599 0.8075577035026599 0.8075577035026599 0.8075577035026599 0.7911188577435629 0.7911188577435629 0.7911188577435629 0.7911188577435629 
0.7715578272807786 0.7715578272807786 0.7715578272807786 0.7715578272807786 0.7489518105649591 0.7489518105649591 0.7489518105649591 0.7489518105649591 0.7233900232163745 
0.7233900232163745 0.7233900232163745 0.7233900232163745 0.6949733459316204 0.6949733459316204 0.6949733459316204 0.6949733459316204 0.6638139263535945 0.6638139263535945 
0.6638139263535945 0.6638139263535945 0.6300347364759864 0.6300347364759864 0.6300347364759864 0.6300347364759864 0.5937690873289996 0.5937690873289996 0.5937690873289996 
0.5937690873289996 0.5551601028616178 0.5551601028616178 0.5551601028616178 0.5551601028616178 0.5143601550967669 0.5143601550967669 0.5143601550967669 0.5143601550967669 
0.4715302627885514 0.4715302627885514 0.4715302627885514 0.4715302627885514 0.4268394559547955 0.4268394559547955 0.4268394559547955 0.4268394559547955 0.3804641087927846 
0.3804641087927846 0.3804641087927846 0.3804641087927846 0.3325872436108858 0.3325872436108858 0.3325872436108858 0.3325872436108858 0.283397808523113 0.283397808523113 
0.283397808523113 0.283397808523113 0.2330899317572419 0.2330899317572419 0.2330899317572419 0.2330899317572419 0.1818621555193866 0.1818621555193866 0.1818621555193866 
0.1818621555193866 0.1299166524386116 0.1299166524386116 0.1299166524386116 0.1299166524386116 0.07745842768393399 0.07745842768393399 0.07745842768393399 0.07745842768393399 
0.02469450990257788 0.02469450990257788 0.02469450990257788 0.02469450990257788 -0.02816686582751579 -0.02816686582751579 -0.02816686582751579 -0.02816686582751579 -0.08091707980640546 
-0.08091707980640546 -0.08091707980640546 -0.08091707980640546 -0.133347951038796 -0.133347951038796 -0.133347951038796 -0.133347951038796 -0.1852525588293208 -0.1852525588293208 
-0.1852525588293208 -0.1852525588293208 -0.2364260594039894 -0.2364260594039894 -0.2364260594039894 -0.2364260594039894 -0.2866664943349835 -0.2866664943349835 -0.2866664943349835 
-0.2866664943349835 -0.3357755875782996 -0.3357755875782996 -0.3357755875782996 -0.3357755875782996 -0.3835595279787204 -0.3835595279787204 -0.3835595279787204 -0.3835595279787204 
-0.4298297341538868 -0.4298297341538868 -0.4298297341538868 -0.4298297341538868 -0.4744035987388756 -0.4744035987388756 -0.4744035987388756 -0.4744035987388756 -0.5171052090540302 
-0.5171052090540302 -0.5171052090540302 -0.5171052090540302 -0.5577660413519467 -0.5577660413519467 -0.5577660413519467 -0.5577660413519467 -0.596225625903712 -0.596225625903712 
-0.596225625903712 -0.596225625903712 -0.6323321802996156 -0.6323321802996156 -0.6323321802996156 -0.6323321802996156 -0.6659432084649691 -0.6659432084649691 -0.6659432084649691 
-0.6659432084649691 -0.6969260630270238 -0.6969260630270238 -0.6969260630270238 -0.6969260630270238 -0.7251584688135432 -0.7251584688135432 -0.7251584688135432 -0.7251584688135432 
-0.7505290054170466 -0.7505290054170466 -0.7505290054170466 -0.7505290054170466 -0.7729375469202556 -0.7729375469202556 -0.7729375469202556 -0.7729375469202556 -0.7922956570473467 
-0.7922956570473467 -0.7922956570473467 -0.7922956570473467 -0.8085269381815264 -0.8085269381815264 -0.8085269381815264 -0.8085269381815264 -0.8215673328715258 -0.8215673328715258 
-0.8215673328715258 -0.8215673328715258 -0.8313653766370923 -0.8313653766370923 -0.8313653766370923 -0.8313653766370923 -0.8378824010757844 -0.8378824010757844 -0.8378824010757844 
-0.8378824010757844 -0.8410926864694879 -0.8410926864694879 -0.8410926864694879 -0.8410926864694879 -0.8409835632883934 -0.8409835632883934 -0.8409835632883934 -0.8409835632883934 
-0.8375554621918431 -0.8375554621918431 -0.8375554621918431 -0.8375554621918431 -0.8308219123287148 -0.8308219123287148 -0.8308219123287148 -0.8308219123287148 -0.820809487944052 