Title = RSC/Post/Linear_Advection_2D/Sine_Wave_2D/Quad100/
FileType = Solution
Variables = q
Zone T = RSC/Post/Linear_Advection_2D/Sine_Wave_2D/Quad100/
ZoneType = FETriangle
Nodes = 40000
Elements = 20000
DataPacking = Block
StrandID = 13
SolutionTime = 1.2
-0.3687202333589966 -0.3687202333589966 -0.3687202333589966 -0.3687202333589966 -0.3595289063318763 -0.3595289063318763 -0.3595289063318763 -0.3595289063318763 -0.3489186829645975 -0.3489186829645975 
-0.3489186829645975 -0.3489186829645975 -0.3369314369614408 -0.3369314369614408 -0.3369314369614408 -0.3369314369614408 -0.3236144765059294 -0.3236144765059294 -0.3236144765059294 
-0.3236144765059294 -0.3090203575570396 -0.3090203575570396 -0.3090203575570396 -0.3090203575570396 -0.2932066764348444 -0.2932066764348444 -0.2932066764348444 -0.2932066764348444 
-0.2762358425141494 -0.2762358425141494 -0.2762358425141494 -0.2762358425141494 -0.2581748319232032 -0.2581748319232032 -0.2581748319232032 -0.2581748319232032 -0.2390949232195174 
-0.2390949232195174 -0.2390949232195174 -0.2390949232195174 -0.2190714160859642 -0.2190714160859642 -0.2190714160859642 -0.2190714160859642 -0.1981833341573296 -0.1981833341573296 
-0.1981833341573296 -0.1981833341573296 -0.176513113150129 -0.176513113150129 -0.176513113150129 -0.176513113150129 -0.1541462755264955 -0.1541462755264955 -0.1541462755264955 
-0.1541462755264955 -0.1311710929760936 -0.1311710929760936 -0.1311710929760936 -0.1311710929760936 -0.1076782380480871 -0.1076782380480871 -0.1076782380480871 -0.1076782380480871 
-0.08376042630801264 -0.08376042630801264 -0.08376042630801264 -0.08376042630801264 -0.05951205043179895 -0.05951205043179895 -0.05951205043179895 -0.05951205043179895 -0.03502880768100064 
-0.03502880768100064 -0.03502880768100064 -0.03502880768100064 -0.0104073222294252 -0.0104073222294252 -0.0104073222294252 -0.0104073222294252 0.01425523616833619 0.01425523616833619 
0.01425523616833619 0.01425523616833619 0.03886153566153916 0.03886153566153916 0.03886153566153916 0.03886153566153916 0.06331446642763289 0.06331446642763289 0.06331446642763289 
0.06331446642763289 0.08751752392036496 0.08751752392036496 0.08751752392036496 0.08751752392036496 0.1113751897291369 0.1113751897291369 0.1113751897291369 0.1113751897291369 
0.1347933085465321 0.1347933085465321 0.1347933085465321 0.1347933085465321 0.1576794597562992 0.1576794597562992 0.1576794597562992 0.1576794597562992 0.179943322175301 
0.179943322175301 0.179943322175301 0.179943322175301 0.2014970305099609 0.2014970305099609 0.2014970305099609 0.2014970305099609 0.222255522120435 0.222255522120435 
0.222255522120435 0.222255522120435 0.2421368727239894 0.2421368727239894 0.2421368727239894 0.2421368727239894 0.2610626197127164 0.2610626197127164 0.2610626197127164 
0.2610626197127164 0.2789580718096033 0.2789580718096033 0.2789580718096033 0.2789580718096033 0.2957526038408782 0.2957526038408782 0.2957526038408782 0.2957526038408782 
0.3113799354613053 0.3113799354613053 0.3113799354613053 0.3113799354613053 0.3257783927324277 0.3257783927324277 0.3257783927324277 0.3257783927324277 0.3388911515214256 
0.3388911515214256 0.3388911515214256 0.3388911515214256 0.3506664617600084 0.3506664617600084 0.3506664617600084 0.3506664617600084 0.3610578516782917 0.3610578516782917 
0.3610578516782917 0.3610578516782917 0.3700243112076431 0.3700243112076431 0.3700243112076431 0.3700243112076431 0.3775304538286855 0.3775304538286855 0.3775304538286855 
0.3775304538286855 0.383546656225724 0.383546656225724 0.383546656225724 0.383546656225724 0.3880491751964406 0.3880491751964406 0.3880491751964406 0.3880491751964406 
0.3910202413554596 0.3910202413554596 0.3910202413554596 0.3910202413554596 0.3924481292620041 0.3924481292620041 0.3924481292620041 0.3924481292620041 0.3923272036948476 
0.3923272036948476 0.3923272036948476 0.3923272036948476 0.3906579418919577 0.3906579418919577 0.3906579418919577 0.3906579418919577 0.3874469316670575 0.3874469316670575 
0.3874469316670575 0.3874469316670575 0.3827068454105332 0.3827068454105332 0.3827068454105332 0.3827068454105332 0.3764563900773 0.3764563900773 0.3764563900773 
0.3764563900773 0.3687202333589966 0.3687202333589966 0.3687202333589966 0.3687202333589966 0.3595289063318762 0.3595289063318762 0.3595289063318762 0.3595289063318762 
0.3489186829645977 0.3489186829645977 0.3489186829645977 0.3489186829645977 0.3369314369614407 0.3369314369614407 0.3369314369614407 0.3369314369614407 0.3236144765059289 
0.3236144765059289 0.3236144765059289 0.3236144765059289 0.3090203575570391 0.3090203575570391 0.3090203575570391 0.3090203575570391 0.293206676434844 0.293206676434844 
0.293206676434844 0.293206676434844 0.2762358425141488 0.2762358425141488 0.2762358425141488 0.2762358425141488 0.2581748319232038 0.2581748319232038 0.2581748319232038 
0.2581748319232038 0.2390949232195177 0.2390949232195177 0.2390949232195177 0.2390949232195177 0.2190714160859644 0.2190714160859644 0.2190714160859644 0.2190714160859644 
0.1981833341573297 0.1981833341573297 0.1981833341573297 0.1981833341573297 0.1765131131501291 0.1765131131501291 0.1765131131501291 0.1765131131501291 0.1541462755264956 
0.1541462755264956 0.1541462755264956 0.1541462755264956 0.1311710929760943 0.1311710929760943 0.1311710929760943 0.1311710929760943 0.1076782380480877 0.1076782380480877 
0.1076782380480877 0.1076782380480877 0.08376042630801264 0.08376042630801264 0.08376042630801264 0.08376042630801264 0.05951205043179908 0.05951205043179908 0.05951205043179908 
0.05951205043179908 0.03502880768100061 0.03502880768100061 0.03502880768100061 0.03502880768100061 0.01040732222942546 0.01040732222942546 0.01040732222942546 0.01040732222942546 
-0.01425523616833619 -0.01425523616833619 -0.01425523616833619 -0.01425523616833619 -0.03886153566153912 -0.03886153566153912 -0.03886153566153912 -0.03886153566153912 -0.06331446642763297 
-0.06331446642763297 -0.06331446642763297 -0.06331446642763297 -0.08751752392036506 -0.08751752392036506 -0.08751752392036506 -0.08751752392036506 -0.111375189729137 -0.111375189729137 
-0.111375189729137 -0.111375189729137 -0.1347933085465322 -0.1347933085465322 -0.1347933085465322 -0.1347933085465322 -0.1576794597562992 -0.1576794597562992 -0.1576794597562992 
-0.1576794597562992 -0.179943322175301 -0.179943322175301 -0.179943322175301 -0.179943322175301 -0.201497030509961 -0.201497030509961 -0.201497030509961 -0.201497030509961 
-0.222255522120435 -0.222255522120435 -0.222255522120435 -0.222255522120435 -0.2421368727239891 -0.2421368727239891 -0.2421368727239891 -0.2421368727239891 -0.2610626197127164 
-0.2610626197127164 -0.2610626197127164 -0.2610626197127164 -0.2789580718096037 -0.2789580718096037 -0.2789580718096037 -0.2789580718096037 -0.2957526038408784 -0.2957526038408784 
-0.2957526038408784 -0.2957526038408784 -0.3113799354613055 -0.3113799354613055 -0.3113799354613055 -0.3113799354613055 -0.3257783927324278 -0.3257783927324278 -0.3257783927324278 
-0.3257783927324278 -0.3388911515214255 -0.3388911515214255 -0.3388911515214255 -0.3388911515214255 -0.3506664617600083 -0.3506664617600083 -0.3506664617600083 -0.3506664617600083 
-0.3610578516782916 -0.3610578516782916 -0.3610578516782916 -0.3610578516782916 -0.370024311207643 -0.370024311207643 -0.370024311207643 -0.370024311207643 -0.3775304538286851 
-0.3775304538286851 -0.3775304538286851 -0.3775304538286851 -0.383546656225724 -0.383546656225724 -0.383546656225724 -0.383546656225724 -0.3880491751964397 -0.3880491751964397 
-0.3880491751964397 -0.3880491751964397 -0.3910202413554592 -0.3910202413554592 -0.3910202413554592 -0.3910202413554592 -0.3924481292620047 -0.3924481292620047 -0.3924481292620047 
-0.3924481292620047 -0.392327203694848 -0.392327203694848 -0.392327203694848 -0.392327203694848 -0.3906579418919581 -0.3906579418919581 -0.3906579418919581 -0.3906579418919581 
-0.3874469316670577 -0.3874469316670577 -0.3874469316670577 -0.3874469316670577 -0.3827068454105332 -0.3827068454105332 -0.3827068454105332 -0.3827068454105332 -0.3764563900773 
-0.3764563900773 -0.3764563900773 -0.3764563900773 -0.333743781850546 -0.333743781850546 -0.333743781850546 -0.333743781850546 -0.3254245498584263 -0.3254245498584263 
-0.3254245498584263 -0.3254245498584263 -0.3158210158403502 -0.3158210158403502 -0.3158210158403502 -0.3158210158403502 -0.3049710805576498 -0.3049710805576498 -0.3049710805576498 
-0.3049710805576498 -0.2929175637480223 -0.2929175637480223 -0.2929175637480223 -0.2929175637480223 -0.2797080351355867 -0.2797080351355867 -0.2797080351355867 -0.2797080351355867 
-0.265394626694917 -0.265394626694917 -0.265394626694917 -0.265394626694917 -0.2500338269099541 -0.2500338269099541 -0.2500338269099541 -0.2500338269099541 -0.2336862578397675 
-0.2336862578397675 -0.2336862578397675 -0.2336862578397675 -0.2164164358709831 -0.2164164358709831 -0.2164164358709831 -0.2164164358709831 -0.1982925171010808 -0.1982925171010808 
-0.1982925171010808 -0.1982925171010808 -0.1793860283574143 -0.1793860283574143 -0.1793860283574143 -0.1793860283574143 -0.1597715849135019 -0.1597715849135019 -0.1597715849135019 
-0.1597715849135019 -0.1395265960166301 -0.1395265960166301 -0.1395265960166301 -0.1395265960166301 -0.1187309593889189 -0.1187309593889189 -0.1187309593889189 -0.1187309593889189 
-0.09746674590751525 -0.09746674590751525 -0.09746674590751525 -0.09746674590751525 -0.0758178757083354 -0.0758178757083354 -0.0758178757083354 -0.0758178757083354 -0.05386978699162721 
-0.05386978699162721 -0.05386978699162721 -0.05386978699162721 -0.03170909883642776 -0.03170909883642776 -0.03170909883642776 -0.03170909883642776 -0.009423269354629952 -0.009423269354629952 
-0.009423269354629952 -0.009423269354629952 0.01289974946622799 0.01289974946622799 0.01289974946622799 0.01289974946622799 0.03517185886927773 0.03517185886927773 0.03517185886927773 
0.03517185886927773 0.05730516101386431 0.05730516101386431 0.05730516101386431 0.05730516101386431 0.07921230586816687 0.07921230586816687 0.07921230586816687 0.07921230586816687 
0.1008068359398681 0.1008068359398681 0.1008068359398681 0.1008068359398681 0.1220035274843773 0.1220035274843773 0.1220035274843773 0.1220035274843773 0.1427187268440153 
0.1427187268440153 0.1427187268440153 0.1427187268440153 0.1628706805907842 0.1628706805907842 0.1628706805907842 0.1628706805907842 0.1823798581697974 0.1823798581697974 
0.1823798581697974 0.1823798581697974 0.201169265770046 0.201169265770046 0.201169265770046 0.201169265770046 0.2191647501837958 0.2191647501837958 0.2191647501837958 
0.2191647501837958 0.2362952914554203 0.2362952914554203 0.2362952914554203 0.2362952914554203 0.2524932831647198 0.2524932831647198 0.2524932831647198 0.2524932831647198 
0.2676947992385771 0.2676947992385771 0.2676947992385771 0.2676947992385771 0.28183984623796 0.28183984623796 0.28183984623796 0.28183984623796 0.2948726001246197 
0.2948726001246197 0.2948726001246197 0.2948726001246197 0.3067416265730643 0.3067416265730643 0.3067416265730643 0.3067416265730643 0.317400083958344 0.317400083958344 
0.317400083958344 0.317400083958344 0.3268059082185453 0.3268059082185453 0.3268059082185453 0.3268059082185453 0.3349219788624257 0.3349219788624257 0.3349219788624257 
0.3349219788624257 0.3417162654670335 0.3417162654670335 0.3417162654670335 0.3417162654670335 0.3471619540871546 0.3471619540871546 0.3471619540871546 0.3471619540871546 
0.3512375530777044 0.3512375530777044 0.3512375530777044 0.3512375530777044 0.3539269779114307 0.3539269779114307 0.3539269779114307 0.3539269779114307 0.3552196146571958 
0.3552196146571958 0.3552196146571958 0.3552196146571958 0.355110361868314 0.355110361868314 0.355110361868314 0.355110361868314 0.3535996507156305 0.3535996507156305 
0.3535996507156305 0.3535996507156305 0.3506934432858864 0.3506934432858864 0.3506934432858864 0.3506934432858864 0.3464032090520872 0.3464032090520872 0.3464032090520872 
0.3464032090520872 0.340745879608732 0.340745879608732 0.340745879608732 0.340745879608732 0.333743781850546 0.333743781850546 0.333743781850546 0.333743781850546 
0.3254245498584262 0.3254245498584262 0.3254245498584262 0.3254245498584262 0.3158210158403504 0.3158210158403504 0.3158210158403504 0.3158210158403504 0.30497108055765 
0.30497108055765 0.30497108055765 0.30497108055765 0.2929175637480224 0.2929175637480224 0.2929175637480224 0.2929175637480224 0.2797080351355866 0.2797080351355866 
0.2797080351355866 0.2797080351355866 0.2653946266949168 0.2653946266949168 0.2653946266949168 0.2653946266949168 0.2500338269099538 0.2500338269099538 0.2500338269099538 
0.2500338269099538 0.2336862578397675 0.2336862578397675 0.2336862578397675 0.2336862578397675 0.2164164358709832 0.2164164358709832 0.2164164358709832 0.2164164358709832 
0.1982925171010808 0.1982925171010808 0.1982925171010808 0.1982925171010808 0.1793860283574144 0.1793860283574144 0.1793860283574144 0.1793860283574144 0.1597715849135022 
0.1597715849135022 0.1597715849135022 0.1597715849135022 0.1395265960166303 0.1395265960166303 0.1395265960166303 0.1395265960166303 0.1187309593889193 0.1187309593889193 
0.1187309593889193 0.1187309593889193 0.0974667459075156 0.0974667459075156 0.0974667459075156 0.0974667459075156 0.07581787570833511 0.07581787570833511 0.07581787570833511 
0.07581787570833511 0.05386978699162712 0.05386978699162712 0.05386978699162712 0.05386978699162712 0.03170909883642734 0.03170909883642734 0.03170909883642734 0.03170909883642734 
0.00942326935463007 0.00942326935463007 0.00942326935463007 0.00942326935463007 -0.01289974946622845 -0.01289974946622845 -0.01289974946622845 -0.01289974946622845 -0.03517185886927768 
-0.03517185886927768 -0.03517185886927768 -0.03517185886927768 -0.05730516101386441 -0.05730516101386441 -0.05730516101386441 -0.05730516101386441 -0.07921230586816649 -0.07921230586816649 
-0.07921230586816649 -0.07921230586816649 -0.1008068359398678 -0.1008068359398678 -0.1008068359398678 -0.1008068359398678 -0.1220035274843769 -0.1220035274843769 -0.1220035274843769 
-0.1220035274843769 -0.1427187268440151 -0.1427187268440151 -0.1427187268440151 -0.1427187268440151 -0.1628706805907842 -0.1628706805907842 -0.1628706805907842 -0.1628706805907842 
-0.1823798581697976 -0.1823798581697976 -0.1823798581697976 -0.1823798581697976 -0.2011692657700462 -0.2011692657700462 -0.2011692657700462 -0.2011692657700462 -0.2191647501837958 
-0.2191647501837958 -0.2191647501837958 -0.2191647501837958 -0.2362952914554202 -0.2362952914554202 -0.2362952914554202 -0.2362952914554202 -0.2524932831647199 -0.2524932831647199 
-0.2524932831647199 -0.2524932831647199 -0.267694799238577 -0.267694799238577 -0.267694799238577 -0.267694799238577 -0.2818398462379599 -0.2818398462379599 -0.2818398462379599 
-0.2818398462379599 -0.2948726001246193 -0.2948726001246193 -0.2948726001246193 -0.2948726001246193 -0.3067416265730643 -0.3067416265730643 -0.3067416265730643 -0.3067416265730643 
-0.3174000839583437 -0.3174000839583437 -0.3174000839583437 -0.3174000839583437 -0.3268059082185455 -0.3268059082185455 -0.3268059082185455 -0.3268059082185455 -0.3349219788624255 
-0.3349219788624255 -0.3349219788624255 -0.3349219788624255 -0.3417162654670337 -0.3417162654670337 -0.3417162654670337 -0.3417162654670337 -0.3471619540871546 -0.3471619540871546 
-0.3471619540871546 -0.3471619540871546 -0.3512375530777042 -0.3512375530777042 -0.3512375530777042 -0.3512375530777042 -0.3539269779114305 -0.3539269779114305 -0.3539269779114305 
-0.3539269779114305 -0.3552196146571956 -0.3552196146571956 -0.3552196146571956 -0.3552196146571956 -0.3551103618683139 -0.3551103618683139 -0.3551103618683139 -0.3551103618683139 
-0.3535996507156305 -0.3535996507156305 -0.3535996507156305 -0.3535996507156305 -0.3506934432858865 -0.3506934432858865 -0.3506934432858865 -0.3506934432858865 -0.3464032090520873 
-0.3464032090520873 -0.3464032090520873 -0.3464032090520873 -0.3407458796087322 -0.3407458796087322 -0.3407458796087322 -0.3407458796087322 -0.2974501961081619 -0.2974501961081619 
-0.2974501961081619 -0.2974501961081619 -0.29003589135902 -0.29003589135902 -0.29003589135902 -0.29003589135902 -0.2814769474514787 -0.2814769474514787 -0.2814769474514787 
-0.2814769474514787 -0.2718071426269315 -0.2718071426269315 -0.2718071426269315 -0.2718071426269315 -0.2610646391873076 -0.2610646391873076 -0.2610646391873076 -0.2610646391873076 
-0.2492918328858999 -0.2492918328858999 -0.2492918328858999 -0.2492918328858999 -0.2365351856106966 -0.2365351856106966 -0.2365351856106966 -0.2365351856106966 -0.222845042020535 
-0.222845042020535 -0.222845042020535 -0.222845042020535 -0.2082754308577339 -0.2082754308577339 -0.2082754308577339 -0.2082754308577339 -0.1928838517213307 -0.1928838517213307 
-0.1928838517213307 -0.1928838517213307 -0.1767310481424331 -0.1767310481424331 -0.1767310481424331 -0.1767310481424331 -0.1598807678572531 -0.1598807678572531 -0.1598807678572531 
-0.1598807678572531 -0.1423995112239153 -0.1423995112239153 -0.1423995112239153 -0.1423995112239153 -0.1243562687759252 -0.1243562687759252 -0.1243562687759252 -0.1243562687759252 
-0.1058222489480517 -0.1058222489480517 -0.1058222489480517 -0.1058222489480517 -0.086870597049167 -0.086870597049167 -0.086870597049167 -0.086870597049167 -0.06757610659113003 
-0.06757610659113003 -0.06757610659113003 -0.06757610659113003 -0.04801492411296427 -0.04801492411296427 -0.04801492411296427 -0.04801492411296427 -0.02826424866525685 -0.02826424866525685 
-0.02826424866525685 -0.02826424866525685 -0.008402027140774319 -0.008402027140774319 -0.008402027140774319 -0.008402027140774319 0.01149335334631147 0.01149335334631147 0.01149335334631147 
0.01149335334631147 0.03134337481855309 0.03134337481855309 0.03134337481855309 0.03134337481855309 0.05106969830981173 0.05106969830981173 0.05106969830981173 0.05106969830981173 
0.07059447303336731 0.07059447303336731 0.07059447303336731 0.07059447303336731 0.08984064362340717 0.08984064362340717 0.08984064362340717 0.08984064362340717 0.1087322542373514 
0.1087322542373514 0.1087322542373514 0.1087322542373514 0.1271947483188624 0.1271947483188624 0.1271947483188624 0.1271947483188624 0.1451552628385122 0.1451552628385122 
0.1451552628385122 0.1451552628385122 0.1625429158508696 0.1625429158508696 0.1625429158508696 0.1625429158508696 0.1792890862331583 0.1792890862331583 0.1792890862331583 
0.1792890862331583 0.1953276845014772 0.1953276845014772 0.1953276845014772 0.1953276845014772 0.2105954136357995 0.2105954136357995 0.2105954136357995 0.2105954136357995 
0.2250320188843938 0.2250320188843938 0.2250320188843938 0.2250320188843938 0.2385805255618015 0.2385805255618015 0.2385805255618015 0.2385805255618015 0.2511874639018911 
0.2511874639018911 0.2511874639018911 0.2511874639018911 0.2628030800785963 0.2628030800785963 0.2628030800785963 0.2628030800785963 0.2733815325615379 0.2733815325615379 
0.2733815325615379 0.2733815325615379 0.2828810730316013 0.2828810730316013 0.2828810730316013 0.2828810730316013 0.2912642111424779 0.2912642111424779 0.2912642111424779 
0.2912642111424779 0.2984978624779357 0.2984978624779357 0.2984978624779357 0.2984978624779357 0.3045534791208948 0.3045534791208948 0.3045534791208948 0.3045534791208948 
0.3094071623190134 0.3094071623190134 0.3094071623190134 0.3094071623190134 0.3130397568021457 0.3130397568021457 0.3130397568021457 0.3130397568021457 0.3154369263794409 
0.3154369263794409 0.3154369263794409 0.3154369263794409 0.3165892105177402 0.3165892105177402 0.3165892105177402 0.3165892105177402 0.316492061677978 0.316492061677978 
0.316492061677978 0.316492061677978 0.3151458632622423 0.3151458632622423 0.3151458632622423 0.3151458632622423 0.3125559281006599 0.3125559281006599 0.3125559281006599 
0.3125559281006599 0.3087324774840852 0.3087324774840852 0.3087324774840852 0.3087324774840852 0.3036906008253334 0.3036906008253334 0.3036906008253334 0.3036906008253334 
0.2974501961081619 0.2974501961081619 0.2974501961081619 0.2974501961081619 0.2900358913590197 0.2900358913590197 0.2900358913590197 0.2900358913590197 0.2814769474514786 
0.2814769474514786 0.2814769474514786 0.2814769474514786 0.2718071426269314 0.2718071426269314 0.2718071426269314 0.2718071426269314 0.2610646391873075 0.2610646391873075 
0.2610646391873075 0.2610646391873075 0.2492918328858997 0.2492918328858997 0.2492918328858997 0.2492918328858997 0.2365351856106966 0.2365351856106966 0.2365351856106966 
0.2365351856106966 0.2228450420205346 0.2228450420205346 0.2228450420205346 0.2228450420205346 0.2082754308577339 0.2082754308577339 0.2082754308577339 0.2082754308577339 
0.1928838517213307 0.1928838517213307 0.1928838517213307 0.1928838517213307 0.1767310481424332 0.1767310481424332 0.1767310481424332 0.1767310481424332 0.159880767857253 
0.159880767857253 0.159880767857253 0.159880767857253 0.1423995112239156 0.1423995112239156 0.1423995112239156 0.1423995112239156 0.1243562687759253 0.1243562687759253 
0.1243562687759253 0.1243562687759253 0.1058222489480516 0.1058222489480516 0.1058222489480516 0.1058222489480516 0.08687059704916697 0.08687059704916697 0.08687059704916697 
0.08687059704916697 0.06757610659112995 0.06757610659112995 0.06757610659112995 0.06757610659112995 0.0480149241129643 0.0480149241129643 0.0480149241129643 0.0480149241129643 
0.02826424866525696 0.02826424866525696 0.02826424866525696 0.02826424866525696 0.008402027140774562 0.008402027140774562 0.008402027140774562 0.008402027140774562 -0.01149335334631151 
-0.01149335334631151 -0.01149335334631151 -0.01149335334631151 -0.03134337481855316 -0.03134337481855316 -0.03134337481855316 -0.03134337481855316 -0.05106969830981174 -0.05106969830981174 
-0.05106969830981174 -0.05106969830981174 -0.07059447303336723 -0.07059447303336723 -0.07059447303336723 -0.07059447303336723 -0.08984064362340717 -0.08984064362340717 -0.08984064362340717 
-0.08984064362340717 -0.1087322542373515 -0.1087322542373515 -0.1087322542373515 -0.1087322542373515 -0.1271947483188624 -0.1271947483188624 -0.1271947483188624 -0.1271947483188624 
-0.1451552628385121 -0.1451552628385121 -0.1451552628385121 -0.1451552628385121 -0.1625429158508696 -0.1625429158508696 -0.1625429158508696 -0.1625429158508696 -0.1792890862331585 
-0.1792890862331585 -0.1792890862331585 -0.1792890862331585 -0.1953276845014773 -0.1953276845014773 -0.1953276845014773 -0.1953276845014773 -0.2105954136357994 -0.2105954136357994 
-0.2105954136357994 -0.2105954136357994 -0.2250320188843936 -0.2250320188843936 -0.2250320188843936 -0.2250320188843936 -0.2385805255618014 -0.2385805255618014 -0.2385805255618014 
-0.2385805255618014 -0.251187463901891 -0.251187463901891 -0.251187463901891 -0.251187463901891 -0.2628030800785965 -0.2628030800785965 -0.2628030800785965 -0.2628030800785965 
-0.2733815325615381 -0.2733815325615381 -0.2733815325615381 -0.2733815325615381 -0.2828810730316013 -0.2828810730316013 -0.2828810730316013 -0.2828810730316013 -0.2912642111424779 
-0.2912642111424779 -0.2912642111424779 -0.2912642111424779 -0.2984978624779356 -0.2984978624779356 -0.2984978624779356 -0.2984978624779356 -0.3045534791208949 -0.3045534791208949 
-0.3045534791208949 -0.3045534791208949 -0.3094071623190133 -0.3094071623190133 -0.3094071623190133 -0.3094071623190133 -0.3130397568021454 -0.3130397568021454 -0.3130397568021454 
-0.3130397568021454 -0.3154369263794407 -0.3154369263794407 -0.3154369263794407 -0.3154369263794407 -0.31658921051774 -0.31658921051774 -0.31658921051774 -0.31658921051774 
-0.3164920616779781 -0.3164920616779781 -0.3164920616779781 -0.3164920616779781 -0.3151458632622424 -0.3151458632622424 -0.3151458632622424 -0.3151458632622424 -0.3125559281006599 
-0.3125559281006599 -0.3125559281006599 -0.3125559281006599 -0.3087324774840853 -0.3087324774840853 -0.3087324774840853 -0.3087324774840853 -0.3036906008253334 -0.3036906008253334 
-0.3036906008253334 -0.3036906008253334 -0.2599827103338073 -0.2599827103338073 -0.2599827103338073 -0.2599827103338073 -0.2535025937012143 -0.2535025937012143 -0.2535025937012143 
-0.2535025937012143 -0.2460220181456013 -0.2460220181456013 -0.2460220181456013 -0.2460220181456013 -0.2375705060811362 -0.2375705060811362 -0.2375705060811362 -0.2375705060811362 
-0.2281814117648092 -0.2281814117648092 -0.2281814117648092 -0.2281814117648092 -0.2178917896624175 -0.2178917896624175 -0.2178917896624175 -0.2178917896624175 -0.206742248211518 
-0.206742248211518 -0.206742248211518 -0.206742248211518 -0.1947767895584764 -0.1947767895584764 -0.1947767895584764 -0.1947767895584764 -0.1820426359020983 -0.1820426359020983 
-0.1820426359020983 -0.1820426359020983 -0.1685900431291839 -0.1685900431291839 -0.1685900431291839 -0.1685900431291839 -0.154472102477503 -0.154472102477503 -0.154472102477503 
-0.154472102477503 -0.1397445310089341 -0.1397445310089341 -0.1397445310089341 -0.1397445310089341 -0.1244654517196762 -0.1244654517196762 -0.1244654517196762 -0.1244654517196762 
-0.1086951641553369 -0.1086951641553369 -0.1086951641553369 -0.1086951641553369 -0.09249590643617339 -0.09249590643617339 -0.09249590643617339 -0.09249590643617339 -0.07593160963166629 
-0.07593160963166629 -0.07593160963166629 -0.07593160963166629 -0.05906764545379598 -0.05906764545379598 -0.05906764545379598 -0.05906764545379598 -0.04197056826475958 -0.04197056826475958 
-0.04197056826475958 -0.04197056826475958 -0.02470785241731109 -0.02470785241731109 -0.02470785241731109 -0.02470785241731109 -0.007347625964315149 -0.007347625964315149 -0.007347625964315149 
-0.007347625964315149 0.0100415982115507 0.0100415982115507 0.0100415982115507 0.0100415982115507 0.02739119278684538 0.02739119278684538 0.02739119278684538 0.02739119278684538 
0.04463268683805607 0.04463268683805607 0.04463268683805607 0.04463268683805607 0.06169803606505193 0.06169803606505193 0.06169803606505193 0.06169803606505193 0.07851989133085055 
0.07851989133085055 0.07851989133085055 0.07851989133085055 0.0950318644578925 0.0950318644578925 0.0950318644578925 0.0950318644578925 0.111168790231848 0.111168790231848 
0.111168790231848 0.111168790231848 0.1268669835789478 0.1268669835789478 0.1268669835789478 0.1268669835789478 0.142064490901873 0.142064490901873 0.142064490901873 
0.142064490901873 0.1567013345823004 0.1567013345823004 0.1567013345823004 0.1567013345823004 0.1707197496851619 0.1707197496851619 0.1707197496851619 0.1707197496851619 
0.1840644119304509 0.1840644119304509 0.1840644119304509 0.1840644119304509 0.1966826560328812 0.1966826560328812 0.1966826560328812 0.1966826560328812 0.2085246835477079 
0.2085246835477079 0.2085246835477079 0.2085246835477079 0.2195437594024378 0.2195437594024378 0.2195437594024378 0.2195437594024378 0.2296963963388094 0.2296963963388094 
0.2296963963388094 0.2296963963388094 0.2389425265371333 0.2389425265371333 0.2389425265371333 0.2389425265371333 0.2472456597456718 0.2472456597456718 0.2472456597456718 
0.2472456597456718 0.2545730272909918 0.2545730272909918 0.2545730272909918 0.2545730272909918 0.2608957114009471 0.2608957114009471 0.2608957114009471 0.2608957114009471 
0.2661887593299159 0.2661887593299159 0.2661887593299159 0.2661887593299159 0.2704312818358856 0.2704312818358856 0.2704312818358856 0.2704312818358856 0.2736065356207501 
0.2736065356207501 0.2736065356207501 0.2736065356207501 0.2757019894084555 0.2757019894084555 0.2757019894084555 0.2757019894084555 0.2767093734002232 0.2767093734002232 
0.2767093734002232 0.2767093734002232 0.2766247119116683 0.2766247119116683 0.2766247119116683 0.2766247119116683 0.2754483390630075 0.2754483390630075 0.2754483390630075 
0.2754483390630075 0.273184897460441 0.273184897460441 0.273184897460441 0.273184897460441 0.2698433198739061 0.2698433198739061 0.2698433198739061 0.2698433198739061 
0.265436793983515 0.265436793983515 0.265436793983515 0.265436793983515 0.2599827103338072 0.2599827103338072 0.2599827103338072 0.2599827103338072 0.2535025937012142 
0.2535025937012142 0.2535025937012142 0.2535025937012142 0.246022018145601 0.246022018145601 0.246022018145601 0.246022018145601 0.2375705060811361 0.2375705060811361 
0.2375705060811361 0.2375705060811361 0.2281814117648091 0.2281814117648091 0.2281814117648091 0.2281814117648091 0.2178917896624173 0.2178917896624173 0.2178917896624173 
0.2178917896624173 0.206742248211518 0.206742248211518 0.206742248211518 0.206742248211518 0.1947767895584762 0.1947767895584762 0.1947767895584762 0.1947767895584762 
0.1820426359020982 0.1820426359020982 0.1820426359020982 0.1820426359020982 0.1685900431291839 0.1685900431291839 0.1685900431291839 0.1685900431291839 0.154472102477503 
0.154472102477503 0.154472102477503 0.154472102477503 0.1397445310089342 0.1397445310089342 0.1397445310089342 0.1397445310089342 0.1244654517196767 0.1244654517196767 
0.1244654517196767 0.1244654517196767 0.1086951641553368 0.1086951641553368 0.1086951641553368 0.1086951641553368 0.09249590643617353 0.09249590643617353 0.09249590643617353 
0.09249590643617353 0.07593160963166662 0.07593160963166662 0.07593160963166662 0.07593160963166662 0.05906764545379614 0.05906764545379614 0.05906764545379614 0.05906764545379614 
0.0419705682647597 0.0419705682647597 0.0419705682647597 0.0419705682647597 0.02470785241731112 0.02470785241731112 0.02470785241731112 0.02470785241731112 0.007347625964315117 
0.007347625964315117 0.007347625964315117 0.007347625964315117 -0.01004159821155077 -0.01004159821155077 -0.01004159821155077 -0.01004159821155077 -0.02739119278684559 -0.02739119278684559 
-0.02739119278684559 -0.02739119278684559 -0.0446326868380561 -0.0446326868380561 -0.0446326868380561 -0.0446326868380561 -0.061698036065052 -0.061698036065052 -0.061698036065052 
-0.061698036065052 -0.07851989133085061 -0.07851989133085061 -0.07851989133085061 -0.07851989133085061 -0.09503186445789233 -0.09503186445789233 -0.09503186445789233 -0.09503186445789233 
-0.1111687902318482 -0.1111687902318482 -0.1111687902318482 -0.1111687902318482 -0.1268669835789478 -0.1268669835789478 -0.1268669835789478 -0.1268669835789478 -0.142064490901873 