Title = RSC/Post/Linear_Advection_2D/Sine_Wave_2D/Quad100/
FileType = Solution
Variables = q
Zone T = RSC/Post/Linear_Advection_2D/Sine_Wave_2D/Quad100/
ZoneType = FETriangle
Nodes = 40000
Elements = 20000
DataPacking = Block
StrandID = 15
SolutionTime = 1.4
-0.3834425992271402 -0.3834425992271402 -0.3834425992271402 -0.3834425992271402 -0.4133579702248152 -0.4133579702248152 -0.4133579702248152 -0.4133579702248152 -0.4416420061593063 -0.4416420061593063 
-0.4416420061593063 -0.4416420061593063 -0.4681830828625267 -0.4681830828625267 -0.4681830828625267 -0.4681830828625267 -0.4928764548301942 -0.4928764548301942 -0.4928764548301942 
-0.4928764548301942 -0.5156246686044798 -0.5156246686044798 -0.5156246686044798 -0.5156246686044798 -0.536337947378287 -0.536337947378287 -0.536337947378287 -0.536337947378287 
-0.5549345453032927 -0.5549345453032927 -0.5549345453032927 -0.5549345453032927 -0.5713410701034641 -0.5713410701034641 -0.5713410701034641 -0.5713410701034641 -0.5854927727208437 
-0.5854927727208437 -0.5854927727208437 -0.5854927727208437 -0.597333802850498 -0.597333802850498 -0.597333802850498 -0.597333802850498 -0.6068174293561578 -0.6068174293561578 
-0.6068174293561578 -0.6068174293561578 -0.6139062246966619 -0.6139062246966619 -0.6139062246966619 -0.6139062246966619 -0.6185722126353641 -0.6185722126353641 -0.6185722126353641 
-0.6185722126353641 -0.6207969786495574 -0.6207969786495574 -0.6207969786495574 -0.6207969786495574 -0.6205717426041821 -0.6205717426041821 -0.6205717426041821 -0.6205717426041821 
-0.6178973934030102 -0.6178973934030102 -0.6178973934030102 -0.6178973934030102 -0.6127844854805431 -0.6127844854805431 -0.6127844854805431 -0.6127844854805431 -0.605253197148486 
-0.605253197148486 -0.605253197148486 -0.605253197148486 -0.5953332509611662 -0.5953332509611662 -0.5953332509611662 -0.5953332509611662 -0.5830637964141945 -0.5830637964141945 
-0.5830637964141945 -0.5830637964141945 -0.5684932554392863 -0.5684932554392863 -0.5684932554392863 -0.5684932554392863 -0.551679131305023 -0.551679131305023 -0.551679131305023 
-0.551679131305023 -0.5326877816777197 -0.5326877816777197 -0.5326877816777197 -0.5326877816777197 -0.5115941567380328 -0.5115941567380328 -0.5115941567380328 -0.5115941567380328 
-0.4884815033868388 -0.4884815033868388 -0.4884815033868388 -0.4884815033868388 -0.4634410367077479 -0.4634410367077479 -0.4634410367077479 -0.4634410367077479 -0.4365715799828417 
-0.4365715799828417 -0.4365715799828417 -0.4365715799828417 -0.407979174682326 -0.407979174682326 -0.407979174682326 -0.407979174682326 -0.3777766619672951 -0.3777766619672951 
-0.3777766619672951 -0.3777766619672951 -0.3460832373572187 -0.3460832373572187 -0.3460832373572187 -0.3460832373572187 -0.3130239803196838 -0.3130239803196838 -0.3130239803196838 
-0.3130239803196838 -0.2787293606388817 -0.2787293606388817 -0.2787293606388817 -0.2787293606388817 -0.24333472351097 -0.24333472351097 -0.24333472351097 -0.24333472351097 
-0.2069797553984211 -0.2069797553984211 -0.2069797553984211 -0.2069797553984211 -0.16980793275137 -0.16980793275137 -0.16980793275137 -0.16980793275137 -0.1319659557716145 
-0.1319659557716145 -0.1319659557716145 -0.1319659557716145 -0.09360316945393872 -0.09360316945393872 -0.09360316945393872 -0.09360316945393872 -0.05487097418964872 -0.05487097418964872 
-0.05487097418964872 -0.05487097418964872 -0.01592222825839575 -0.01592222825839575 -0.01592222825839575 -0.01592222825839575 0.02308935543361872 0.02308935543361872 0.02308935543361872 
0.02308935543361872 0.06200981598826 0.06200981598826 0.06200981598826 0.06200981598826 0.100685552128786 0.100685552128786 0.100685552128786 0.100685552128786 
0.1389639283939128 0.1389639283939128 0.1389639283939128 0.1389639283939128 0.1766938775202487 0.1766938775202487 0.1766938775202487 0.1766938775202487 0.2137264966357661 
0.2137264966357661 0.2137264966357661 0.2137264966357661 0.2499156349114105 0.2499156349114105 0.2499156349114105 0.2499156349114105 0.2851184703516528 0.2851184703516528 
0.2851184703516528 0.2851184703516528 0.3191960734476559 0.3191960734476559 0.3191960734476559 0.3191960734476559 0.3520139554685758 0.3520139554685758 0.3520139554685758 
0.3520139554685758 0.3834425992271401 0.3834425992271401 0.3834425992271401 0.3834425992271401 0.4133579702248154 0.4133579702248154 0.4133579702248154 0.4133579702248154 
0.4416420061593066 0.4416420061593066 0.4416420061593066 0.4416420061593066 0.4681830828625271 0.4681830828625271 0.4681830828625271 0.4681830828625271 0.4928764548301941 
0.4928764548301941 0.4928764548301941 0.4928764548301941 0.5156246686044795 0.5156246686044795 0.5156246686044795 0.5156246686044795 0.5363379473782868 0.5363379473782868 
0.5363379473782868 0.5363379473782868 0.5549345453032917 0.5549345453032917 0.5549345453032917 0.5549345453032917 0.5713410701034652 0.5713410701034652 0.5713410701034652 
0.5713410701034652 0.585492772720844 0.585492772720844 0.585492772720844 0.585492772720844 0.5973338028504982 0.5973338028504982 0.5973338028504982 0.5973338028504982 
0.6068174293561581 0.6068174293561581 0.6068174293561581 0.6068174293561581 0.6139062246966622 0.6139062246966622 0.6139062246966622 0.6139062246966622 0.6185722126353643 
0.6185722126353643 0.6185722126353643 0.6185722126353643 0.6207969786495598 0.6207969786495598 0.6207969786495598 0.6207969786495598 0.620571742604184 0.620571742604184 
0.620571742604184 0.620571742604184 0.6178973934030108 0.6178973934030108 0.6178973934030108 0.6178973934030108 0.6127844854805432 0.6127844854805432 0.6127844854805432 
0.6127844854805432 0.6052531971484858 0.6052531971484858 0.6052531971484858 0.6052531971484858 0.5953332509611665 0.5953332509611665 0.5953332509611665 0.5953332509611665 
0.583063796414194 0.583063796414194 0.583063796414194 0.583063796414194 0.5684932554392859 0.5684932554392859 0.5684932554392859 0.5684932554392859 0.5516791313050223 
0.5516791313050223 0.5516791313050223 0.5516791313050223 0.5326877816777189 0.5326877816777189 0.5326877816777189 0.5326877816777189 0.5115941567380321 0.5115941567380321 
0.5115941567380321 0.5115941567380321 0.4884815033868384 0.4884815033868384 0.4884815033868384 0.4884815033868384 0.4634410367077476 0.4634410367077476 0.4634410367077476 
0.4634410367077476 0.4365715799828415 0.4365715799828415 0.4365715799828415 0.4365715799828415 0.4079791746823257 0.4079791746823257 0.4079791746823257 0.4079791746823257 
0.3777766619672943 0.3777766619672943 0.3777766619672943 0.3777766619672943 0.3460832373572177 0.3460832373572177 0.3460832373572177 0.3460832373572177 0.3130239803196836 
0.3130239803196836 0.3130239803196836 0.3130239803196836 0.2787293606388819 0.2787293606388819 0.2787293606388819 0.2787293606388819 0.24333472351097 0.24333472351097 
0.24333472351097 0.24333472351097 0.2069797553984208 0.2069797553984208 0.2069797553984208 0.2069797553984208 0.1698079327513701 0.1698079327513701 0.1698079327513701 
0.1698079327513701 0.1319659557716146 0.1319659557716146 0.1319659557716146 0.1319659557716146 0.09360316945393909 0.09360316945393909 0.09360316945393909 0.09360316945393909 
0.05487097418964896 0.05487097418964896 0.05487097418964896 0.05487097418964896 0.0159222282583962 0.0159222282583962 0.0159222282583962 0.0159222282583962 -0.0230893554336189 
-0.0230893554336189 -0.0230893554336189 -0.0230893554336189 -0.06200981598826023 -0.06200981598826023 -0.06200981598826023 -0.06200981598826023 -0.100685552128786 -0.100685552128786 
-0.100685552128786 -0.100685552128786 -0.1389639283939132 -0.1389639283939132 -0.1389639283939132 -0.1389639283939132 -0.1766938775202491 -0.1766938775202491 -0.1766938775202491 
-0.1766938775202491 -0.2137264966357663 -0.2137264966357663 -0.2137264966357663 -0.2137264966357663 -0.2499156349114106 -0.2499156349114106 -0.2499156349114106 -0.2499156349114106 
-0.2851184703516529 -0.2851184703516529 -0.2851184703516529 -0.2851184703516529 -0.3191960734476559 -0.3191960734476559 -0.3191960734476559 -0.3191960734476559 -0.3520139554685758 
-0.3520139554685758 -0.3520139554685758 -0.3520139554685758 -0.3739373408331564 -0.3739373408331564 -0.3739373408331564 -0.3739373408331564 -0.4031113456560609 -0.4031113456560609 
-0.4031113456560609 -0.4031113456560609 -0.4306944541617167 -0.4306944541617167 -0.4306944541617167 -0.4306944541617167 -0.456577808422376 -0.456577808422376 -0.456577808422376 
-0.456577808422376 -0.4806592586637511 -0.4806592586637511 -0.4806592586637511 -0.4806592586637511 -0.5028437664035079 -0.5028437664035079 -0.5028437664035079 -0.5028437664035079 
-0.5230437795247349 -0.5230437795247349 -0.5230437795247349 -0.5230437795247349 -0.5411795778041508 -0.5411795778041508 -0.5411795778041508 -0.5411795778041508 -0.5571795875314048 
-0.5571795875314048 -0.5571795875314048 -0.5571795875314048 -0.5709806639778126 -0.5709806639778126 -0.5709806639778126 -0.5709806639778126 -0.5825283405997521 -0.5825283405997521 
-0.5825283405997521 -0.5825283405997521 -0.5917770439932283 -0.5917770439932283 -0.5917770439932283 -0.5917770439932283 -0.598690273751278 -0.598690273751278 -0.598690273751278 
-0.598690273751278 -0.6032407465144005 -0.6032407465144005 -0.6032407465144005 -0.6032407465144005 -0.6054105036455125 -0.6054105036455125 -0.6054105036455125 -0.6054105036455125 
-0.6051909821044856 -0.6051909821044856 -0.6051909821044856 -0.6051909821044856 -0.6025830482425527 -0.6025830482425527 -0.6025830482425527 -0.6025830482425527 -0.5975969943832147 
-0.5975969943832147 -0.5975969943832147 -0.5975969943832147 -0.5902524982031432 -0.5902524982031432 -0.5902524982031432 -0.5902524982031432 -0.5805785450733792 -0.5805785450733792 
-0.5805785450733792 -0.5805785450733792 -0.5686133136673179 -0.5686133136673179 -0.5686133136673179 -0.5686133136673179 -0.5544040252869247 -0.5544040252869247 -0.5544040252869247 
-0.5544040252869247 -0.5380067575018301 -0.5380067575018301 -0.5380067575018301 -0.5380067575018301 -0.5194862228367838 -0.5194862228367838 -0.5194862228367838 -0.5194862228367838 
-0.4989155133808805 -0.4989155133808805 -0.4989155133808805 -0.4989155133808805 -0.4763758123264795 -0.4763758123264795 -0.4763758123264795 -0.4763758123264795 -0.451956073576233 
-0.451956073576233 -0.451956073576233 -0.451956073576233 -0.4257526706826704 -0.4257526706826704 -0.4257526706826704 -0.4257526706826704 -0.3978690165058166 -0.3978690165058166 
-0.3978690165058166 -0.3978690165058166 -0.3684151550898783 -0.3684151550898783 -0.3684151550898783 -0.3684151550898783 -0.3375073273696739 -0.3375073273696739 -0.3375073273696739 
-0.3375073273696739 -0.3052675124207719 -0.3052675124207719 -0.3052675124207719 -0.3052675124207719 -0.271822946063806 -0.271822946063806 -0.271822946063806 -0.271822946063806 
-0.2373056187228173 -0.2373056187228173 -0.2373056187228173 -0.2373056187228173 -0.2018517545193548 -0.2018517545193548 -0.2018517545193548 -0.2018517545193548 -0.1656012736580991 
-0.1656012736580991 -0.1656012736580991 -0.1656012736580991 -0.1286972402257405 -0.1286972402257405 -0.1286972402257405 -0.1286972402257405 -0.09128529758238693 -0.09128529758238693 
-0.09128529758238693 -0.09128529758238693 -0.05351309357376106 -0.05351309357376106 -0.05351309357376106 -0.05351309357376106 -0.01552969783260669 -0.01552969783260669 -0.01552969783260669 
-0.01552969783260669 0.02251498653104875 0.02251498653104875 0.02251498653104875 0.02251498653104875 0.06047081452898526 0.06047081452898526 0.06047081452898526 0.06047081452898526 
0.09818799184846314 0.09818799184846314 0.09818799184846314 0.09818799184846314 0.1355176660219419 0.1355176660219419 0.1355176660219419 0.1355176660219419 0.1723125138797647 
0.1723125138797647 0.1723125138797647 0.1723125138797647 0.2084273229674029 0.2084273229674029 0.2084273229674029 0.2084273229674029 0.2437195646326748 0.2437195646326748 
0.2437195646326748 0.2437195646326748 0.2780499565212193 0.2780499565212193 0.2780499565212193 0.2780499565212193 0.311283012260317 0.311283012260317 0.311283012260317 
0.311283012260317 0.3432875761617041 0.3432875761617041 0.3432875761617041 0.3432875761617041 0.3739373408331563 0.3739373408331563 0.3739373408331563 0.3739373408331563 
0.4031113456560612 0.4031113456560612 0.4031113456560612 0.4031113456560612 0.4306944541617164 0.4306944541617164 0.4306944541617164 0.4306944541617164 0.4565778084223758 
0.4565778084223758 0.4565778084223758 0.4565778084223758 0.4806592586637508 0.4806592586637508 0.4806592586637508 0.4806592586637508 0.5028437664035075 0.5028437664035075 
0.5028437664035075 0.5028437664035075 0.5230437795247346 0.5230437795247346 0.5230437795247346 0.5230437795247346 0.5411795778041502 0.5411795778041502 0.5411795778041502 
0.5411795778041502 0.5571795875314045 0.5571795875314045 0.5571795875314045 0.5571795875314045 0.5709806639778124 0.5709806639778124 0.5709806639778124 0.5709806639778124 
0.5825283405997522 0.5825283405997522 0.5825283405997522 0.5825283405997522 0.5917770439932286 0.5917770439932286 0.5917770439932286 0.5917770439932286 0.5986902737512783 
0.5986902737512783 0.5986902737512783 0.5986902737512783 0.6032407465144006 0.6032407465144006 0.6032407465144006 0.6032407465144006 0.6054105036455135 0.6054105036455135 
0.6054105036455135 0.6054105036455135 0.6051909821044867 0.6051909821044867 0.6051909821044867 0.6051909821044867 0.6025830482425534 0.6025830482425534 0.6025830482425534 
0.6025830482425534 0.5975969943832151 0.5975969943832151 0.5975969943832151 0.5975969943832151 0.5902524982031432 0.5902524982031432 0.5902524982031432 0.5902524982031432 
0.5805785450733796 0.5805785450733796 0.5805785450733796 0.5805785450733796 0.5686133136673177 0.5686133136673177 0.5686133136673177 0.5686133136673177 0.5544040252869245 
0.5544040252869245 0.5544040252869245 0.5544040252869245 0.5380067575018299 0.5380067575018299 0.5380067575018299 0.5380067575018299 0.5194862228367836 0.5194862228367836 
0.5194862228367836 0.5194862228367836 0.4989155133808804 0.4989155133808804 0.4989155133808804 0.4989155133808804 0.4763758123264795 0.4763758123264795 0.4763758123264795 
0.4763758123264795 0.4519560735762327 0.4519560735762327 0.4519560735762327 0.4519560735762327 0.42575267068267 0.42575267068267 0.42575267068267 0.42575267068267 
0.3978690165058162 0.3978690165058162 0.3978690165058162 0.3978690165058162 0.3684151550898774 0.3684151550898774 0.3684151550898774 0.3684151550898774 0.3375073273696731 
0.3375073273696731 0.3375073273696731 0.3375073273696731 0.3052675124207715 0.3052675124207715 0.3052675124207715 0.3052675124207715 0.2718229460638061 0.2718229460638061 
0.2718229460638061 0.2718229460638061 0.237305618722818 0.237305618722818 0.237305618722818 0.237305618722818 0.2018517545193556 0.2018517545193556 0.2018517545193556 
0.2018517545193556 0.1656012736581 0.1656012736581 0.1656012736581 0.1656012736581 0.1286972402257404 0.1286972402257404 0.1286972402257404 0.1286972402257404 
0.09128529758238715 0.09128529758238715 0.09128529758238715 0.09128529758238715 0.05351309357376089 0.05351309357376089 0.05351309357376089 0.05351309357376089 0.01552969783260699 
0.01552969783260699 0.01552969783260699 0.01552969783260699 -0.02251498653104958 -0.02251498653104958 -0.02251498653104958 -0.02251498653104958 -0.06047081452898534 -0.06047081452898534 
-0.06047081452898534 -0.06047081452898534 -0.09818799184846289 -0.09818799184846289 -0.09818799184846289 -0.09818799184846289 -0.1355176660219418 -0.1355176660219418 -0.1355176660219418 
-0.1355176660219418 -0.1723125138797635 -0.1723125138797635 -0.1723125138797635 -0.1723125138797635 -0.2084273229674022 -0.2084273229674022 -0.2084273229674022 -0.2084273229674022 
-0.2437195646326746 -0.2437195646326746 -0.2437195646326746 -0.2437195646326746 -0.2780499565212196 -0.2780499565212196 -0.2780499565212196 -0.2780499565212196 -0.3112830122603172 
-0.3112830122603172 -0.3112830122603172 -0.3112830122603172 -0.3432875761617042 -0.3432875761617042 -0.3432875761617042 -0.3432875761617042 -0.362956322590625 -0.362956322590625 
-0.362956322590625 -0.362956322590625 -0.3912738247700581 -0.3912738247700581 -0.3912738247700581 -0.3912738247700581 -0.4180471479191306 -0.4180471479191306 -0.4180471479191306 
-0.4180471479191306 -0.4431706299629412 -0.4431706299629412 -0.4431706299629412 -0.4431706299629412 -0.4665451199956899 -0.4665451199956899 -0.4665451199956899 -0.4665451199956899 
-0.4880783695840067 -0.4880783695840067 -0.4880783695840067 -0.4880783695840067 -0.507685396829372 -0.507685396829372 -0.507685396829372 -0.507685396829372 -0.5252888217528472 
-0.5252888217528472 -0.5252888217528472 -0.5252888217528472 -0.5408191716784991 -0.5408191716784991 -0.5408191716784991 -0.5408191716784991 -0.5542151554103134 -0.5542151554103134 
-0.5542151554103134 -0.5542151554103134 -0.5654239051205427 -0.5654239051205427 -0.5654239051205427 -0.5654239051205427 -0.5744011849948722 -0.5744011849948722 -0.5744011849948722 
-0.5744011849948722 -0.5811115658109669 -0.5811115658109669 -0.5811115658109669 -0.5811115658109669 -0.5855285647614266 -0.5855285647614266 -0.5855285647614266 -0.5855285647614266 
-0.5876347499693289 -0.5876347499693289 -0.5876347499693289 -0.5876347499693289 -0.5874218092838828 -0.5874218092838828 -0.5874218092838828 -0.5874218092838828 -0.5848905830846907 
-0.5848905830846907 -0.5848905830846907 -0.5848905830846907 -0.5800510609651529 -0.5800510609651529 -0.5800510609651529 -0.5800510609651529 -0.5729223423081085 -0.5729223423081085 
-0.5729223423081085 -0.5729223423081085 -0.5635325609092943 -0.5635325609092943 -0.5635325609092943 -0.5635325609092943 -0.5519187739461092 -0.5519187739461092 -0.5519187739461092 
-0.5519187739461092 -0.5381268157298615 -0.5381268157298615 -0.5381268157298615 -0.5381268157298615 -0.5222111168186852 -0.5222111168186852 -0.5222111168186852 -0.5222111168186852 
-0.5042344892049911 -0.5042344892049911 -0.5042344892049911 -0.5042344892049911 -0.4842678784252306 -0.4842678784252306 -0.4842678784252306 -0.4842678784252306 -0.4623900835702746 
-0.4623900835702746 -0.4623900835702746 -0.4623900835702746 -0.4386874463014018 -0.4386874463014018 -0.4386874463014018 -0.4386874463014018 -0.4132535100992075 -0.4132535100992075 
-0.4132535100992075 -0.4132535100992075 -0.386188651090222 -0.386188651090222 -0.386188651090222 -0.386188651090222 -0.3575996819081957 -0.3575996819081957 -0.3575996819081957 
-0.3575996819081957 -0.3275994301534319 -0.3275994301534319 -0.3275994301534319 -0.3275994301534319 -0.2963062931137954 -0.2963062931137954 -0.2963062931137954 -0.2963062931137954 
-0.2638437705047076 -0.2638437705047076 -0.2638437705047076 -0.2638437705047076 -0.2303399770721911 -0.2303399770721911 -0.2303399770721911 -0.2303399770721911 -0.1959271369824961 
-0.1959271369824961 -0.1959271369824961 -0.1959271369824961 -0.1607410619937256 -0.1607410619937256 -0.1607410619937256 -0.1607410619937256 -0.124920615468872 -0.124920615468872 
-0.124920615468872 -0.124920615468872 -0.08860716434556293 -0.08860716434556293 -0.08860716434556293 -0.08860716434556293 -0.05194402122534478 -0.05194402122534478 -0.05194402122534478 
-0.05194402122534478 -0.01507587878431664 -0.01507587878431664 -0.01507587878431664 -0.01507587878431664 0.02185176126275963 0.02185176126275963 0.02185176126275963 0.02185176126275963 
0.05869316239125191 0.05869316239125191 0.05869316239125191 0.05869316239125191 0.09530292842214107 0.09530292842214107 0.09530292842214107 0.09530292842214107 0.1315365773343146 
0.1315365773343146 0.1315365773343146 0.1315365773343146 0.1672511114690956 0.1672511114690956 0.1672511114690956 0.1672511114690956 0.2023055818766729 0.2023055818766729 
0.2023055818766729 0.2023055818766729 0.2365616445772113 0.2365616445772113 0.2365616445772113 0.2365616445772113 0.2698841065413389 0.2698841065413389 0.2698841065413389 
0.2698841065413389 0.3021414592352679 0.3021414592352679 0.3021414592352679 0.3021414592352679 0.3332063976248977 0.3332063976248977 0.3332063976248977 0.3332063976248977 
0.3629563225906249 0.3629563225906249 0.3629563225906249 0.3629563225906249 0.3912738247700581 0.3912738247700581 0.3912738247700581 0.3912738247700581 0.4180471479191303 
0.4180471479191303 0.4180471479191303 0.4180471479191303 0.4431706299629411 0.4431706299629411 0.4431706299629411 0.4431706299629411 0.46654511999569 0.46654511999569 
0.46654511999569 0.46654511999569 0.4880783695840068 0.4880783695840068 0.4880783695840068 0.4880783695840068 0.5076853968293719 0.5076853968293719 0.5076853968293719 
0.5076853968293719 0.5252888217528469 0.5252888217528469 0.5252888217528469 0.5252888217528469 0.5408191716784987 0.5408191716784987 0.5408191716784987 0.5408191716784987 
0.554215155410313 0.554215155410313 0.554215155410313 0.554215155410313 0.5654239051205427 0.5654239051205427 0.5654239051205427 0.5654239051205427 0.5744011849948724 
0.5744011849948724 0.5744011849948724 0.5744011849948724 0.5811115658109669 0.5811115658109669 0.5811115658109669 0.5811115658109669 0.5855285647614265 0.5855285647614265 
0.5855285647614265 0.5855285647614265 0.5876347499693295 0.5876347499693295 0.5876347499693295 0.5876347499693295 0.5874218092838834 0.5874218092838834 0.5874218092838834 
0.5874218092838834 0.5848905830846913 0.5848905830846913 0.5848905830846913 0.5848905830846913 0.5800510609651536 0.5800510609651536 0.5800510609651536 0.5800510609651536 
0.572922342308109 0.572922342308109 0.572922342308109 0.572922342308109 0.5635325609092948 0.5635325609092948 0.5635325609092948 0.5635325609092948 0.5519187739461094 
0.5519187739461094 0.5519187739461094 0.5519187739461094 0.5381268157298617 0.5381268157298617 0.5381268157298617 0.5381268157298617 0.522211116818685 0.522211116818685 
0.522211116818685 0.522211116818685 0.5042344892049911 0.5042344892049911 0.5042344892049911 0.5042344892049911 0.4842678784252304 0.4842678784252304 0.4842678784252304 
0.4842678784252304 0.4623900835702744 0.4623900835702744 0.4623900835702744 0.4623900835702744 0.4386874463014015 0.4386874463014015 0.4386874463014015 0.4386874463014015 
0.4132535100992073 0.4132535100992073 0.4132535100992073 0.4132535100992073 0.3861886510902218 0.3861886510902218 0.3861886510902218 0.3861886510902218 0.3575996819081951 
0.3575996819081951 0.3575996819081951 0.3575996819081951 0.3275994301534313 0.3275994301534313 0.3275994301534313 0.3275994301534313 0.2963062931137949 0.2963062931137949 
0.2963062931137949 0.2963062931137949 0.2638437705047079 0.2638437705047079 0.2638437705047079 0.2638437705047079 0.2303399770721915 0.2303399770721915 0.2303399770721915 
0.2303399770721915 0.1959271369824959 0.1959271369824959 0.1959271369824959 0.1959271369824959 0.1607410619937252 0.1607410619937252 0.1607410619937252 0.1607410619937252 
0.1249206154688716 0.1249206154688716 0.1249206154688716 0.1249206154688716 0.08860716434556276 0.08860716434556276 0.08860716434556276 0.08860716434556276 0.05194402122534515 
0.05194402122534515 0.05194402122534515 0.05194402122534515 0.01507587878431671 0.01507587878431671 0.01507587878431671 0.01507587878431671 -0.02185176126275985 -0.02185176126275985 
-0.02185176126275985 -0.02185176126275985 -0.05869316239125222 -0.05869316239125222 -0.05869316239125222 -0.05869316239125222 -0.09530292842214089 -0.09530292842214089 -0.09530292842214089 
-0.09530292842214089 -0.1315365773343145 -0.1315365773343145 -0.1315365773343145 -0.1315365773343145 -0.1672511114690957 -0.1672511114690957 -0.1672511114690957 -0.1672511114690957 
-0.2023055818766732 -0.2023055818766732 -0.2023055818766732 -0.2023055818766732 -0.2365616445772114 -0.2365616445772114 -0.2365616445772114 -0.2365616445772114 -0.2698841065413393 
-0.2698841065413393 -0.2698841065413393 -0.2698841065413393 -0.3021414592352679 -0.3021414592352679 -0.3021414592352679 -0.3021414592352679 -0.3332063976248978 -0.3332063976248978 
-0.3332063976248978 -0.3332063976248978 -0.3505428815617993 -0.3505428815617993 -0.3505428815617993 -0.3505428815617993 -0.3778921248536947 -0.3778921248536947 -0.3778921248536947 
-0.3778921248536947 -0.4037500005712823 -0.4037500005712823 -0.4037500005712823 -0.4037500005712823 -0.4280144594924447 -0.4280144594924447 -0.4280144594924447 -0.4280144594924447 
-0.4505897408831965 -0.4505897408831965 -0.4505897408831965 -0.4505897408831965 -0.471386750421554 -0.471386750421554 -0.471386750421554 -0.471386750421554 -0.490323411812119 
-0.490323411812119 -0.490323411812119 -0.490323411812119 -0.5073249907037202 -0.5073249907037202 -0.5073249907037202 -0.5073249907037202 -0.5223243896317556 -0.5223243896317556 
-0.5223243896317556 -0.5223243896317556 -0.5352624128212293 -0.5352624128212293 -0.5352624128212293 -0.5352624128212293 -0.5460879998054333 -0.5460879998054333 -0.5460879998054333 
-0.5460879998054333 -0.554758426938281 -0.554758426938281 -0.554758426938281 -0.554758426938281 -0.5612394760050206 -0.5612394760050206 -0.5612394760050206 -0.5612394760050206 
-0.5655055692658952 -0.5655055692658952 -0.5655055692658952 -0.5655055692658952 -0.5675398703997967 -0.5675398703997967 -0.5675398703997967 -0.5675398703997967 -0.5673343509495337 
-0.5673343509495337 -0.5673343509495337 -0.5673343509495337 -0.5648898220064833 -0.5648898220064833 -0.5648898220064833 -0.5648898220064833 -0.5602159310095844 -0.5602159310095844 
-0.5602159310095844 -0.5602159310095844 -0.5533311236713045 -0.5533311236713045 -0.5533311236713045 -0.5533311236713045 -0.5442625711808382 -0.5442625711808382 -0.5442625711808382 
-0.5442625711808382 -0.5330460629718381 -0.5330460629718381 -0.5330460629718381 -0.5330460629718381 -0.5197258654778697 -0.5197258654778697 -0.5197258654778697 -0.5197258654778697 
-0.5043545474330224 -0.5043545474330224 -0.5043545474330224 -0.5043545474330224 -0.4869927724071322 -0.4869927724071322 -0.4869927724071322 -0.4869927724071322 -0.4677090593943854 
-0.4677090593943854 -0.4677090593943854 -0.4677090593943854 -0.4465795124001528 -0.4465795124001528 -0.4465795124001528 -0.4465795124001528 -0.4236875200932494 -0.4236875200932494 
-0.4236875200932494 -0.4236875200932494 -0.3991234267089535 -0.3991234267089535 -0.3991234267089535 -0.3991234267089535 -0.3729841755015866 -0.3729841755015866 -0.3729841755015866 
-0.3729841755015866 -0.3453729261537763 -0.3453729261537763 -0.3453729261537763 -0.3453729261537763 -0.3163986476523178 -0.3163986476523178 -0.3163986476523178 -0.3163986476523178 
-0.2861756882373676 -0.2861756882373676 -0.2861756882373676 -0.2861756882373676 -0.2548233241221805 -0.2548233241221805 -0.2548233241221805 -0.2548233241221805 -0.2224652887643861 
-0.2224652887643861 -0.2224652887643861 -0.2224652887643861 -0.1892292845465617 -0.1892292845465617 -0.1892292845465617 -0.1892292845465617 -0.1552464787932686 -0.1552464787932686 
-0.1552464787932686 -0.1552464787932686 -0.120650986113548 -0.120650986113548 -0.120650986113548 -0.120650986113548 -0.08557933911182994 -0.08557933911182994 -0.08557933911182994 
-0.08557933911182994 -0.05016994955611815 -0.05016994955611815 -0.05016994955611815 -0.05016994955611815 -0.01456256212997839 -0.01456256212997839 -0.01456256212997839 -0.01456256212997839 
0.02110229707588662 0.02110229707588662 0.02110229707588662 0.02110229707588662 0.0566838751559155 0.0566838751559155 0.0566838751559155 0.0566838751559155 0.09204174787710313 
0.09204174787710313 0.09204174787710313 0.09204174787710313 0.1270363738692948 0.1270363738692948 0.1270363738692948 0.1270363738692948 0.1615296453312231 0.1615296453312231 
0.1615296453312231 0.1615296453312231 0.195385433078905 0.195385433078905 0.195385433078905 0.195385433078905 0.2284701237853372 0.2284701237853372 0.2284701237853372 
0.2284701237853372 0.2606531472912597 0.2606531472912597 0.2606531472912597 0.2606531472912597 0.2918074919059196 0.2918074919059196 0.2918074919059196 0.2918074919059196 
0.3218102056641884 0.3218102056641884 0.3218102056641884 0.3218102056641884 0.3505428815617992 0.3505428815617992 0.3505428815617992 0.3505428815617992 0.3778921248536948 
0.3778921248536948 0.3778921248536948 0.3778921248536948 0.4037500005712822 0.4037500005712822 0.4037500005712822 0.4037500005712822 0.4280144594924447 0.4280144594924447 
0.4280144594924447 0.4280144594924447 0.4505897408831967 0.4505897408831967 0.4505897408831967 0.4505897408831967 0.4713867504215544 0.4713867504215544 0.4713867504215544 
0.4713867504215544 0.4903234118121188 0.4903234118121188 0.4903234118121188 0.4903234118121188 0.5073249907037205 0.5073249907037205 0.5073249907037205 0.5073249907037205 
0.5223243896317552 0.5223243896317552 0.5223243896317552 0.5223243896317552 0.5352624128212291 0.5352624128212291 0.5352624128212291 0.5352624128212291 0.5460879998054333 
0.5460879998054333 0.5460879998054333 0.5460879998054333 0.5547584269382811 0.5547584269382811 0.5547584269382811 0.5547584269382811 0.5612394760050206 0.5612394760050206 
0.5612394760050206 0.5612394760050206 0.5655055692658953 0.5655055692658953 0.5655055692658953 0.5655055692658953 0.5675398703997969 0.5675398703997969 0.5675398703997969 
0.5675398703997969 0.5673343509495341 0.5673343509495341 0.5673343509495341 0.5673343509495341 0.5648898220064836 0.5648898220064836 0.5648898220064836 0.5648898220064836 
0.5602159310095848 0.5602159310095848 0.5602159310095848 0.5602159310095848 0.553331123671305 0.553331123671305 0.553331123671305 0.553331123671305 0.5442625711808387 
0.5442625711808387 0.5442625711808387 0.5442625711808387 0.5330460629718383 0.5330460629718383 0.5330460629718383 0.5330460629718383 0.5197258654778698 0.5197258654778698 
0.5197258654778698 0.5197258654778698 0.5043545474330225 0.5043545474330225 0.5043545474330225 0.5043545474330225 0.4869927724071321 0.4869927724071321 0.4869927724071321 
0.4869927724071321 0.4677090593943852 0.4677090593943852 0.4677090593943852 0.4677090593943852 0.4465795124001529 0.4465795124001529 0.4465795124001529 0.4465795124001529 
0.4236875200932492 0.4236875200932492 0.4236875200932492 0.4236875200932492 0.3991234267089535 0.3991234267089535 0.3991234267089535 0.3991234267089535 0.3729841755015864 