Title = RSC/Post/Linear_Advection_2D/Sine_Wave_2D/Quad100/
FileType = Solution
Variables = q
Zone T = RSC/Post/Linear_Advection_2D/Sine_Wave_2D/Quad100/
ZoneType = FETriangle
Nodes = 40000
Elements = 20000
DataPacking = Block
StrandID = 12
SolutionTime = 1.1
-0.1116136627909963 -0.1116136627909963 -0.1116136627909963 -0.1116136627909963 -0.1009823583005479 -0.1009823583005479 -0.1009823583005479 -0.1009823583005479 -0.0899525225763383 -0.0899525225763383 
-0.0899525225763383 -0.0899525225763383 -0.07856768534091839 -0.07856768534091839 -0.07856768534091839 -0.07856768534091839 -0.06687277734561919 -0.06687277734561919 -0.06687277734561919 
-0.06687277734561919 -0.05491395304940253 -0.05491395304940253 -0.05491395304940253 -0.05491395304940253 -0.04273840846829861 -0.04273840846829861 -0.04273840846829861 -0.04273840846829861 
-0.03039419491429189 -0.03039419491429189 -0.03039419491429189 -0.03039419491429189 -0.01793002935874529 -0.01793002935874529 -0.01793002935874529 -0.01793002935874529 -0.005395102168770958 
-0.005395102168770958 -0.005395102168770958 -0.005395102168770958 0.00716111702467578 0.00716111702467578 0.00716111702467578 0.00716111702467578 0.01968907456082927 0.01968907456082927 
0.01968907456082927 0.01968907456082927 0.03213932831477374 0.03213932831477374 0.03213932831477374 0.03213932831477374 0.04446274282292223 0.04446274282292223 0.04446274282292223 
0.04446274282292223 0.05661068319824358 0.05661068319824358 0.05661068319824358 0.05661068319824358 0.06853520706994255 0.06853520706994255 0.06853520706994255 0.06853520706994255 
0.08018925379009428 0.08018925379009428 0.08018925379009428 0.08018925379009428 0.09152683016052178 0.09152683016052178 0.09152683016052178 0.09152683016052178 0.1025031919469369 
0.1025031919469369 0.1025031919469369 0.1025031919469369 0.1130750204639913 0.1130750204639913 0.1130750204639913 0.1130750204639913 0.1232005935343373 0.1232005935343373 
0.1232005935343373 0.1232005935343373 0.1328399501470005 0.1328399501470005 0.1328399501470005 0.1328399501470005 0.141955048165234 0.141955048165234 0.141955048165234 
0.141955048165234 0.1505099144614519 0.1505099144614519 0.1505099144614519 0.1505099144614519 0.1584707868867297 0.1584707868867297 0.1584707868867297 0.1584707868867297 
0.1658062475145815 0.1658062475145815 0.1658062475145815 0.1658062475145815 0.1724873466331623 0.1724873466331623 0.1724873466331623 0.1724873466331623 0.178487716996555 
0.178487716996555 0.178487716996555 0.178487716996555 0.1837836778842435 0.1837836778842435 0.1837836778842435 0.1837836778842435 0.188354328558099 0.188354328558099 
0.188354328558099 0.188354328558099 0.1921816307480429 0.1921816307480429 0.1921816307480429 0.1921816307480429 0.1952504798408594 0.1952504798408594 0.1952504798408594 
0.1952504798408594 0.1975487644912036 0.1975487644912036 0.1975487644912036 0.1975487644912036 0.1990674144195466 0.1990674144195466 0.1990674144195466 0.1990674144195466 
0.1998004362084264 0.1998004362084264 0.1998004362084264 0.1998004362084264 0.1997449369557283 0.1997449369557283 0.1997449369557283 0.1997449369557283 0.1989011356916472 
0.1989011356916472 0.1989011356916472 0.1989011356916472 0.1972723625142766 0.1972723625142766 0.1972723625142766 0.1972723625142766 0.1948650454472317 0.1948650454472317 
0.1948650454472317 0.1948650454472317 0.1916886850711775 0.1916886850711775 0.1916886850711775 0.1916886850711775 0.1877558170293775 0.1877558170293775 0.1877558170293775 
0.1877558170293775 0.183081962555236 0.183081962555236 0.183081962555236 0.183081962555236 0.1776855672170823 0.1776855672170823 0.1776855672170823 0.1776855672170823 
0.1715879281219356 0.1715879281219356 0.1715879281219356 0.1715879281219356 0.1648131098655593 0.1648131098655593 0.1648131098655593 0.1648131098655593 0.1573878495604915 
0.1573878495604915 0.1573878495604915 0.1573878495604915 0.1493414513168774 0.1493414513168774 0.1493414513168774 0.1493414513168774 0.140705670592535 0.140705670592535 
0.140705670592535 0.140705670592535 0.13151458886867 0.13151458886867 0.13151458886867 0.13151458886867 0.1218044791458408 0.1218044791458408 0.1218044791458408 
0.1218044791458408 0.1116136627909963 0.1116136627909963 0.1116136627909963 0.1116136627909963 0.1009823583005477 0.1009823583005477 0.1009823583005477 0.1009823583005477 
0.08995252257633826 0.08995252257633826 0.08995252257633826 0.08995252257633826 0.07856768534091825 0.07856768534091825 0.07856768534091825 0.07856768534091825 0.06687277734561894 
0.06687277734561894 0.06687277734561894 0.06687277734561894 0.05491395304940234 0.05491395304940234 0.05491395304940234 0.05491395304940234 0.04273840846829847 0.04273840846829847 
0.04273840846829847 0.04273840846829847 0.03039419491429181 0.03039419491429181 0.03039419491429181 0.03039419491429181 0.01793002935874539 0.01793002935874539 0.01793002935874539 
0.01793002935874539 0.005395102168771018 0.005395102168771018 0.005395102168771018 0.005395102168771018 -0.007161117024675749 -0.007161117024675749 -0.007161117024675749 -0.007161117024675749 
-0.01968907456082928 -0.01968907456082928 -0.01968907456082928 -0.01968907456082928 -0.03213932831477375 -0.03213932831477375 -0.03213932831477375 -0.03213932831477375 -0.04446274282292224 
-0.04446274282292224 -0.04446274282292224 -0.04446274282292224 -0.05661068319824381 -0.05661068319824381 -0.05661068319824381 -0.05661068319824381 -0.06853520706994275 -0.06853520706994275 
-0.06853520706994275 -0.06853520706994275 -0.08018925379009434 -0.08018925379009434 -0.08018925379009434 -0.08018925379009434 -0.09152683016052182 -0.09152683016052182 -0.09152683016052182 
-0.09152683016052182 -0.1025031919469368 -0.1025031919469368 -0.1025031919469368 -0.1025031919469368 -0.1130750204639914 -0.1130750204639914 -0.1130750204639914 -0.1130750204639914 
-0.1232005935343371 -0.1232005935343371 -0.1232005935343371 -0.1232005935343371 -0.1328399501470005 -0.1328399501470005 -0.1328399501470005 -0.1328399501470005 -0.1419550481652339 
-0.1419550481652339 -0.1419550481652339 -0.1419550481652339 -0.150509914461452 -0.150509914461452 -0.150509914461452 -0.150509914461452 -0.1584707868867298 -0.1584707868867298 
-0.1584707868867298 -0.1584707868867298 -0.1658062475145817 -0.1658062475145817 -0.1658062475145817 -0.1658062475145817 -0.1724873466331625 -0.1724873466331625 -0.1724873466331625 
-0.1724873466331625 -0.178487716996555 -0.178487716996555 -0.178487716996555 -0.178487716996555 -0.1837836778842436 -0.1837836778842436 -0.1837836778842436 -0.1837836778842436 
-0.1883543285580988 -0.1883543285580988 -0.1883543285580988 -0.1883543285580988 -0.1921816307480426 -0.1921816307480426 -0.1921816307480426 -0.1921816307480426 -0.1952504798408594 
-0.1952504798408594 -0.1952504798408594 -0.1952504798408594 -0.1975487644912038 -0.1975487644912038 -0.1975487644912038 -0.1975487644912038 -0.1990674144195467 -0.1990674144195467 
-0.1990674144195467 -0.1990674144195467 -0.1998004362084265 -0.1998004362084265 -0.1998004362084265 -0.1998004362084265 -0.1997449369557284 -0.1997449369557284 -0.1997449369557284 
-0.1997449369557284 -0.1989011356916472 -0.1989011356916472 -0.1989011356916472 -0.1989011356916472 -0.1972723625142767 -0.1972723625142767 -0.1972723625142767 -0.1972723625142767 
-0.1948650454472315 -0.1948650454472315 -0.1948650454472315 -0.1948650454472315 -0.1916886850711776 -0.1916886850711776 -0.1916886850711776 -0.1916886850711776 -0.1877558170293772 
-0.1877558170293772 -0.1877558170293772 -0.1877558170293772 -0.1830819625552359 -0.1830819625552359 -0.1830819625552359 -0.1830819625552359 -0.1776855672170817 -0.1776855672170817 
-0.1776855672170817 -0.1776855672170817 -0.1715879281219353 -0.1715879281219353 -0.1715879281219353 -0.1715879281219353 -0.1648131098655596 -0.1648131098655596 -0.1648131098655596 
-0.1648131098655596 -0.1573878495604917 -0.1573878495604917 -0.1573878495604917 -0.1573878495604917 -0.1493414513168776 -0.1493414513168776 -0.1493414513168776 -0.1493414513168776 
-0.1407056705925351 -0.1407056705925351 -0.1407056705925351 -0.1407056705925351 -0.1315145888686701 -0.1315145888686701 -0.1315145888686701 -0.1315145888686701 -0.1218044791458409 
-0.1218044791458409 -0.1218044791458409 -0.1218044791458409 -0.08706927661973041 -0.08706927661973041 -0.08706927661973041 -0.08706927661973041 -0.07877653667859864 -0.07877653667859864 
-0.07877653667859864 -0.07877653667859864 -0.07017290173677268 -0.07017290173677268 -0.07017290173677268 -0.07017290173677268 -0.06129232641074096 -0.06129232641074096 -0.06129232641074096 
-0.06129232641074096 -0.05216985827416655 -0.05216985827416655 -0.05216985827416655 -0.05216985827416655 -0.04284149954112497 -0.04284149954112497 -0.04284149954112497 -0.04284149954112497 
-0.03334406498181396 -0.03334406498181396 -0.03334406498181396 -0.03334406498181396 -0.02371503663147399 -0.02371503663147399 -0.02371503663147399 -0.02371503663147399 -0.01399241586591924 
-0.01399241586591924 -0.01399241586591924 -0.01399241586591924 -0.004214573427468456 -0.004214573427468456 -0.004214573427468456 -0.004214573427468456 0.005579902006845099 0.005579902006845099 
0.005579902006845099 0.005579902006845099 0.01535235611715234 0.01535235611715234 0.01535235611715234 0.01535235611715234 0.02506422149168959 0.02506422149168959 0.02506422149168959 
0.02506422149168959 0.03467716983475263 0.03467716983475263 0.03467716983475263 0.03467716983475263 0.04415326323096989 0.04415326323096989 0.04415326323096989 0.04415326323096989 
0.05345510386892173 0.05345510386892173 0.05345510386892173 0.05345510386892173 0.06254598163321688 0.06254598163321688 0.06254598163321688 0.06254598163321688 0.07139001898254679 
0.07139001898254679 0.07139001898254679 0.07139001898254679 0.0799523125419498 0.0799523125419498 0.0799523125419498 0.0799523125419498 0.08819907085048689 0.08819907085048689 
0.08819907085048689 0.08819907085048689 0.09609774772069959 0.09609774772069959 0.09609774772069959 0.09609774772069959 0.1036171706835435 0.1036171706835435 0.1036171706835435 
0.1036171706835435 0.110727664011882 0.110727664011882 0.110727664011882 0.110727664011882 0.1174011658370233 0.1174011658370233 0.1174011658370233 0.1174011658370233 
0.1236113388960967 0.1236113388960967 0.1236113388960967 0.1236113388960967 0.1293336744731963 0.1293336744731963 0.1293336744731963 0.1293336744731963 0.1345455891240855 
0.1345455891240855 0.1345455891240855 0.1345455891240855 0.1392265138027347 0.1392265138027347 0.1392265138027347 0.1392265138027347 0.1433579750379483 0.1433579750379483 
0.1433579750379483 0.1433579750379483 0.1469236678397161 0.1469236678397161 0.1469236678397161 0.1469236678397161 0.1499095200475596 0.1499095200475596 0.1499095200475596 
0.1499095200475596 0.1523037478669204 0.1523037478669204 0.1523037478669204 0.1523037478669204 0.154096902374414 0.154096902374414 0.154096902374414 0.154096902374414 
0.1552819068084143 0.1552819068084143 0.1552819068084143 0.1552819068084143 0.1558540844977967 0.1558540844977967 0.1558540844977967 0.1558540844977967 0.1558111773186247 
0.1558111773186247 0.1558111773186247 0.1558111773186247 0.1551533546059319 0.1551533546059319 0.1551533546059319 0.1551533546059319 0.1538832124854346 0.1538832124854346 
0.1538832124854346 0.1538832124854346 0.1520057636278098 0.1520057636278098 0.1520057636278098 0.1520057636278098 0.1495284174659739 0.1495284174659739 0.1495284174659739 
0.1495284174659739 0.1464609509534356 0.1464609509534356 0.1464609509534356 0.1464609509534356 0.1428154699791279 0.1428154699791279 0.1428154699791279 0.1428154699791279 
0.1386063615909946 0.1386063615909946 0.1386063615909946 0.1386063615909946 0.1338502372168848 0.1338502372168848 0.1338502372168848 0.1338502372168848 0.1285658671068364 
0.1285658671068364 0.1285658671068364 0.1285658671068364 0.122774106255475 0.122774106255475 0.122774106255475 0.122774106255475 0.1164978120968771 0.1164978120968771 
0.1164978120968771 0.1164978120968771 0.1097617542967204 0.1097617542967204 0.1097617542967204 0.1097617542967204 0.1025925169977303 0.1025925169977303 0.1025925169977303 
0.1025925169977303 0.09501839390421282 0.09501839390421282 0.09501839390421282 0.09501839390421282 0.08706927661973041 0.08706927661973041 0.08706927661973041 0.08706927661973041 
0.0787765366785986 0.0787765366785986 0.0787765366785986 0.0787765366785986 0.07017290173677282 0.07017290173677282 0.07017290173677282 0.07017290173677282 0.06129232641074109 
0.06129232641074109 0.06129232641074109 0.06129232641074109 0.05216985827416661 0.05216985827416661 0.05216985827416661 0.05216985827416661 0.04284149954112497 0.04284149954112497 
0.04284149954112497 0.04284149954112497 0.03334406498181391 0.03334406498181391 0.03334406498181391 0.03334406498181391 0.02371503663147394 0.02371503663147394 0.02371503663147394 
0.02371503663147394 0.01399241586591931 0.01399241586591931 0.01399241586591931 0.01399241586591931 0.004214573427468519 0.004214573427468519 0.004214573427468519 0.004214573427468519 
-0.005579902006845048 -0.005579902006845048 -0.005579902006845048 -0.005579902006845048 -0.01535235611715233 -0.01535235611715233 -0.01535235611715233 -0.01535235611715233 -0.02506422149168955 
-0.02506422149168955 -0.02506422149168955 -0.02506422149168955 -0.03467716983475264 -0.03467716983475264 -0.03467716983475264 -0.03467716983475264 -0.04415326323096989 -0.04415326323096989 
-0.04415326323096989 -0.04415326323096989 -0.0534551038689217 -0.0534551038689217 -0.0534551038689217 -0.0534551038689217 -0.06254598163321719 -0.06254598163321719 -0.06254598163321719 
-0.06254598163321719 -0.07139001898254689 -0.07139001898254689 -0.07139001898254689 -0.07139001898254689 -0.07995231254195009 -0.07995231254195009 -0.07995231254195009 -0.07995231254195009 
-0.08819907085048691 -0.08819907085048691 -0.08819907085048691 -0.08819907085048691 -0.09609774772069991 -0.09609774772069991 -0.09609774772069991 -0.09609774772069991 -0.1036171706835436 
-0.1036171706835436 -0.1036171706835436 -0.1036171706835436 -0.1107276640118822 -0.1107276640118822 -0.1107276640118822 -0.1107276640118822 -0.1174011658370233 -0.1174011658370233 
-0.1174011658370233 -0.1174011658370233 -0.1236113388960968 -0.1236113388960968 -0.1236113388960968 -0.1236113388960968 -0.1293336744731961 -0.1293336744731961 -0.1293336744731961 
-0.1293336744731961 -0.1345455891240855 -0.1345455891240855 -0.1345455891240855 -0.1345455891240855 -0.1392265138027347 -0.1392265138027347 -0.1392265138027347 -0.1392265138027347 
-0.1433579750379484 -0.1433579750379484 -0.1433579750379484 -0.1433579750379484 -0.1469236678397162 -0.1469236678397162 -0.1469236678397162 -0.1469236678397162 -0.1499095200475596 
-0.1499095200475596 -0.1499095200475596 -0.1499095200475596 -0.1523037478669204 -0.1523037478669204 -0.1523037478669204 -0.1523037478669204 -0.1540969023744143 -0.1540969023744143 
-0.1540969023744143 -0.1540969023744143 -0.1552819068084144 -0.1552819068084144 -0.1552819068084144 -0.1552819068084144 -0.1558540844977969 -0.1558540844977969 -0.1558540844977969 
-0.1558540844977969 -0.1558111773186245 -0.1558111773186245 -0.1558111773186245 -0.1558111773186245 -0.1551533546059318 -0.1551533546059318 -0.1551533546059318 -0.1551533546059318 
-0.1538832124854344 -0.1538832124854344 -0.1538832124854344 -0.1538832124854344 -0.1520057636278098 -0.1520057636278098 -0.1520057636278098 -0.1520057636278098 -0.1495284174659738 
-0.1495284174659738 -0.1495284174659738 -0.1495284174659738 -0.1464609509534357 -0.1464609509534357 -0.1464609509534357 -0.1464609509534357 -0.1428154699791278 -0.1428154699791278 
-0.1428154699791278 -0.1428154699791278 -0.1386063615909946 -0.1386063615909946 -0.1386063615909946 -0.1386063615909946 -0.1338502372168849 -0.1338502372168849 -0.1338502372168849 
-0.1338502372168849 -0.1285658671068365 -0.1285658671068365 -0.1285658671068365 -0.1285658671068365 -0.122774106255475 -0.122774106255475 -0.122774106255475 -0.122774106255475 
-0.116497812096877 -0.116497812096877 -0.116497812096877 -0.116497812096877 -0.1097617542967204 -0.1097617542967204 -0.1097617542967204 -0.1097617542967204 -0.1025925169977303 
-0.1025925169977303 -0.1025925169977303 -0.1025925169977303 -0.09501839390421285 -0.09501839390421285 -0.09501839390421285 -0.09501839390421285 -0.06218126779181517 -0.06218126779181517 
-0.06218126779181517 -0.06218126779181517 -0.05625982005595521 -0.05625982005595521 -0.05625982005595521 -0.05625982005595521 -0.05011634051300135 -0.05011634051300135 -0.05011634051300135 
-0.05011634051300135 -0.04377507467002072 -0.04377507467002072 -0.04377507467002072 -0.04377507467002072 -0.0372610486062469 -0.0372610486062469 -0.0372610486062469 -0.0372610486062469 
-0.03059997020657801 -0.03059997020657801 -0.03059997020657801 -0.03059997020657801 -0.02381812770430035 -0.02381812770430035 -0.02381812770430035 -0.02381812770430035 -0.0169422859334413 
-0.0169422859334413 -0.0169422859334413 -0.0169422859334413 -0.009999580700197146 -0.009999580700197146 -0.009999580700197146 -0.009999580700197146 -0.003017411690303186 -0.003017411690303186 
-0.003017411690303186 -0.003017411690303186 0.003976665665008129 0.003976665665008129 0.003976665665008129 0.003976665665008129 0.01095504893770537 0.01095504893770537 0.01095504893770537 
0.01095504893770537 0.01789019763713129 0.01789019763713129 0.01789019763713129 0.01789019763713129 0.02475474189973727 0.02475474189973727 0.02475474189973727 0.02475474189973727 
0.03152159050543078 0.03152159050543078 0.03152159050543078 0.03152159050543078 0.03816403779424427 0.03816403779424427 0.03816403779424427 0.03816403779424427 0.04465586906137428 
0.04465586906137428 0.04465586906137428 0.04465586906137428 0.05097146401464489 0.05097146401464489 0.05097146401464489 0.05097146401464489 0.05708589788609673 0.05708589788609673 
0.05708589788609673 0.05708589788609673 0.06297503979865809 0.06297503979865809 0.06297503979865809 0.06297503979865809 0.06861564799969305 0.06861564799969305 0.06861564799969305 
0.06861564799969305 0.07398546158558096 0.07398546158558096 0.07398546158558096 0.07398546158558096 0.07906328835533283 0.07906328835533283 0.07906328835533283 0.07906328835533283 
0.08382908844652678 0.08382908844652678 0.08382908844652678 0.08382908844652678 0.08826405342348984 0.08826405342348984 0.08826405342348984 0.08826405342348984 0.09235068050560072 
0.09235068050560072 0.09235068050560072 0.09235068050560072 0.09607284164276871 0.09607284164276871 0.09607284164276871 0.09607284164276871 0.09941584716547905 0.09941584716547905 
0.09941584716547905 0.09941584716547905 0.1023665037582073 0.1023665037582073 0.1023665037582073 0.1023665037582073 0.1049131665274092 0.1049131665274092 0.1049131665274092 
0.1049131665274092 0.1070457849585939 0.1070457849585939 0.1070457849585939 0.1070457849585939 0.1087559425811143 0.1087559425811143 0.1087559425811143 0.1087559425811143 
0.1100368901841311 0.1100368901841311 0.1100368901841311 0.1100368901841311 0.1108835724526642 0.1108835724526642 0.1108835724526642 0.1108835724526642 0.1112926479186124 
0.1112926479186124 0.1112926479186124 0.1112926479186124 0.1112625021480002 0.1112625021480002 0.1112625021480002 0.1112625021480002 0.1107932541124119 0.1107932541124119 
0.1107932541124119 0.1107932541124119 0.1098867557194652 0.1098867557194652 0.1098867557194652 0.1098867557194652 0.1085465845041769 0.1085465845041769 0.1085465845041769 
0.1085465845041769 0.1067780295100679 0.1067780295100679 0.1067780295100679 0.1067780295100679 0.1045880704157242 0.1045880704157242 0.1045880704157242 0.1045880704157242 
0.1019853499891941 0.1019853499891941 0.1019853499891941 0.1019853499891941 0.09898013997893107 0.09898013997893107 0.09898013997893107 0.09898013997893107 0.0955843005758957 
0.0955843005758957 0.0955843005758957 0.0955843005758957 0.09181123360680046 0.09181123360680046 0.09181123360680046 0.09181123360680046 0.08767582964322169 0.08767582964322169 
0.08767582964322169 0.08767582964322169 0.08319440923531776 0.08319440923531776 0.08319440923531776 0.08319440923531776 0.07838465850207227 0.07838465850207227 0.07838465850207227 
0.07838465850207227 0.07326555933226314 0.07326555933226314 0.07326555933226314 0.07326555933226314 0.06785731447161986 0.06785731447161986 0.06785731447161986 0.06785731447161986 
0.06218126779181516 0.06218126779181516 0.06218126779181516 0.06218126779181516 0.05625982005595515 0.05625982005595515 0.05625982005595515 0.05625982005595515 0.05011634051300136 
0.05011634051300136 0.05011634051300136 0.05011634051300136 0.04377507467002073 0.04377507467002073 0.04377507467002073 0.04377507467002073 0.03726104860624688 0.03726104860624688 
0.03726104860624688 0.03726104860624688 0.03059997020657793 0.03059997020657793 0.03059997020657793 0.03059997020657793 0.02381812770430037 0.02381812770430037 0.02381812770430037 
0.02381812770430037 0.01694228593344123 0.01694228593344123 0.01694228593344123 0.01694228593344123 0.009999580700197193 0.009999580700197193 0.009999580700197193 0.009999580700197193 
0.003017411690303236 0.003017411690303236 0.003017411690303236 0.003017411690303236 -0.003976665665008081 -0.003976665665008081 -0.003976665665008081 -0.003976665665008081 -0.01095504893770535 
-0.01095504893770535 -0.01095504893770535 -0.01095504893770535 -0.01789019763713123 -0.01789019763713123 -0.01789019763713123 -0.01789019763713123 -0.02475474189973719 -0.02475474189973719 
-0.02475474189973719 -0.02475474189973719 -0.03152159050543089 -0.03152159050543089 -0.03152159050543089 -0.03152159050543089 -0.0381640377942445 -0.0381640377942445 -0.0381640377942445 
-0.0381640377942445 -0.04465586906137446 -0.04465586906137446 -0.04465586906137446 -0.04465586906137446 -0.05097146401464506 -0.05097146401464506 -0.05097146401464506 -0.05097146401464506 
-0.05708589788609689 -0.05708589788609689 -0.05708589788609689 -0.05708589788609689 -0.06297503979865809 -0.06297503979865809 -0.06297503979865809 -0.06297503979865809 -0.06861564799969316 
-0.06861564799969316 -0.06861564799969316 -0.06861564799969316 -0.07398546158558102 -0.07398546158558102 -0.07398546158558102 -0.07398546158558102 -0.07906328835533288 -0.07906328835533288 
-0.07906328835533288 -0.07906328835533288 -0.08382908844652677 -0.08382908844652677 -0.08382908844652677 -0.08382908844652677 -0.08826405342348989 -0.08826405342348989 -0.08826405342348989 
-0.08826405342348989 -0.09235068050560105 -0.09235068050560105 -0.09235068050560105 -0.09235068050560105 -0.09607284164276876 -0.09607284164276876 -0.09607284164276876 -0.09607284164276876 
-0.0994158471654791 -0.0994158471654791 -0.0994158471654791 -0.0994158471654791 -0.1023665037582074 -0.1023665037582074 -0.1023665037582074 -0.1023665037582074 -0.1049131665274092 
-0.1049131665274092 -0.1049131665274092 -0.1049131665274092 -0.107045784958594 -0.107045784958594 -0.107045784958594 -0.107045784958594 -0.1087559425811143 -0.1087559425811143 
-0.1087559425811143 -0.1087559425811143 -0.1100368901841311 -0.1100368901841311 -0.1100368901841311 -0.1100368901841311 -0.1108835724526644 -0.1108835724526644 -0.1108835724526644 
-0.1108835724526644 -0.1112926479186123 -0.1112926479186123 -0.1112926479186123 -0.1112926479186123 -0.1112625021480003 -0.1112625021480003 -0.1112625021480003 -0.1112625021480003 
-0.110793254112412 -0.110793254112412 -0.110793254112412 -0.110793254112412 -0.1098867557194651 -0.1098867557194651 -0.1098867557194651 -0.1098867557194651 -0.1085465845041769 
-0.1085465845041769 -0.1085465845041769 -0.1085465845041769 -0.1067780295100678 -0.1067780295100678 -0.1067780295100678 -0.1067780295100678 -0.1045880704157243 -0.1045880704157243 
-0.1045880704157243 -0.1045880704157243 -0.1019853499891939 -0.1019853499891939 -0.1019853499891939 -0.1019853499891939 -0.0989801399789309 -0.0989801399789309 -0.0989801399789309 
-0.0989801399789309 -0.09558430057589552 -0.09558430057589552 -0.09558430057589552 -0.09558430057589552 -0.09181123360680028 -0.09181123360680028 -0.09181123360680028 -0.09181123360680028 
-0.08767582964322175 -0.08767582964322175 -0.08767582964322175 -0.08767582964322175 -0.08319440923531797 -0.08319440923531797 -0.08319440923531797 -0.08319440923531797 -0.07838465850207214 
-0.07838465850207214 -0.07838465850207214 -0.07838465850207214 -0.07326555933226314 -0.07326555933226314 -0.07326555933226314 -0.07326555933226314 -0.06785731447161986 -0.06785731447161986 
-0.06785731447161986 -0.06785731447161986 -0.03704785790784463 -0.03704785790784463 -0.03704785790784463 -0.03704785790784463 -0.03352107162621782 -0.03352107162621782 -0.03352107162621782 
-0.03352107162621782 -0.02986199298920325 -0.02986199298920325 -0.02986199298920325 -0.02986199298920325 -0.02608506270850719 -0.02608506270850719 -0.02608506270850719 -0.02608506270850719 
-0.02220518660243226 -0.02220518660243226 -0.02220518660243226 -0.02220518660243226 -0.01823767676942228 -0.01823767676942228 -0.01823767676942228 -0.01823767676942228 -0.01419819115820535 
-0.01419819115820535 -0.01419819115820535 -0.01419819115820535 -0.01010267177302351 -0.01010267177302351 -0.01010267177302351 -0.01010267177302351 -0.005967281757825247 -0.005967281757825247 
-0.005967281757825247 -0.005967281757825247 -0.00180834160772057 -0.00180834160772057 -0.00180834160772057 -0.00180834160772057 0.002357735240557093 0.002357735240557093 0.002357735240557093 
0.002357735240557093 0.006514507184987033 0.006514507184987033 0.006514507184987033 0.006514507184987033 0.01064556934575307 0.01064556934575307 0.01064556934575307 0.01064556934575307 
0.01473461830780942 0.01473461830780942 0.01473461830780942 0.01473461830780942 0.01876551646301163 0.01876551646301163 0.01876551646301163 0.01876551646301163 0.0227223556978833 
0.0227223556978833 0.0227223556978833 0.0227223556978833 0.02658952017567233 0.02658952017567233 0.02658952017567233 0.02658952017567233 0.03035174796492427 0.03035174796492427 
0.03035174796492427 0.03035174796492427 0.03399419127135322 0.03399419127135322 0.03399419127135322 0.03399419127135322 0.03750247503530298 0.03750247503530298 0.03750247503530298 
0.03750247503530298 0.04086275366353943 0.04086275366353943 0.04086275366353943 0.04086275366353943 0.04406176567148232 0.04406176567148232 0.04406176567148232 0.04406176567148232 
0.04708688602022568 0.04708688602022568 0.04708688602022568 0.04708688602022568 0.04992617594179927 0.04992617594179927 0.04992617594179927 0.04992617594179927 0.05256843005603074 
0.05256843005603074 0.05256843005603074 0.05256843005603074 0.05500322059306234 0.05500322059306234 0.05500322059306234 0.05500322059306234 0.05722093854699412 0.05722093854699412 
0.05722093854699412 0.05722093854699412 0.05921283159824135 0.05921283159824135 0.05921283159824135 0.05921283159824135 0.06097103865493986 0.06097103865493986 0.06097103865493986 
0.06097103865493986 0.06248862087708509 0.06248862087708509 0.06248862087708509 0.06248862087708509 0.06375958906096393 0.06375958906096393 0.06375958906096393 0.06375958906096393 
0.06477892727580459 0.06477892727580459 0.06477892727580459 0.06477892727580459 0.06554261265936442 0.06554261265936442 0.06554261265936442 0.06554261265936442 0.06604763129432915 
0.06604763129432915 0.06604763129432915 0.06604763129432915 0.0662919901028677 0.0662919901028677 0.0662919901028677 0.0662919901028677 0.06627472471239967 0.06627472471239967 
0.06627472471239967 0.06627472471239967 0.06599590326153333 0.06599590326153333 0.06599590326153333 0.06599590326153333 0.06545662613115413 0.06545662613115413 0.06545662613115413 
0.06545662613115413 0.06465902160172329 0.06465902160172329 0.06465902160172329 0.06465902160172329 0.06360623745392721 0.06360623745392721 0.06360623745392721 0.06360623745392721 
0.06230242854582644 0.06230242854582644 0.06230242854582644 0.06230242854582644 0.06075274041552722 0.06075274041552722 0.06075274041552722 0.06075274041552722 0.0589632889740952 
0.0589632889740952 0.0589632889740952 0.0589632889740952 0.05694113636884673 0.05694113636884673 0.05694113636884673 0.05694113636884673 0.05469426311228084 0.05469426311228084 
0.05469426311228084 0.05469426311228084 0.05223153658664308 0.05223153658664308 0.05223153658664308 0.05223153658664308 0.04956267604841694 0.04956267604841694 0.04956267604841694 
0.04956267604841694 0.04669821427086054 0.04669821427086054 0.04669821427086054 0.04669821427086054 0.04364945597596188 0.04364945597596188 0.04364945597596188 0.04364945597596188 
0.04042843321986549 0.04042843321986549 0.04042843321986549 0.04042843321986549 0.03704785790784465 0.03704785790784465 0.03704785790784465 0.03704785790784465 0.03352107162621785 
0.03352107162621785 0.03352107162621785 0.03352107162621785 0.02986199298920318 0.02986199298920318 0.02986199298920318 0.02986199298920318 0.02608506270850716 0.02608506270850716 
0.02608506270850716 0.02608506270850716 0.02220518660243223 0.02220518660243223 0.02220518660243223 0.02220518660243223 0.01823767676942224 0.01823767676942224 0.01823767676942224 
0.01823767676942224 0.01419819115820539 0.01419819115820539 0.01419819115820539 0.01419819115820539 0.01010267177302347 0.01010267177302347 0.01010267177302347 0.01010267177302347 
0.005967281757825297 0.005967281757825297 0.005967281757825297 0.005967281757825297 0.001808341607720617 0.001808341607720617 0.001808341607720617 0.001808341607720617 -0.002357735240557045 
-0.002357735240557045 -0.002357735240557045 -0.002357735240557045 -0.006514507184987026 -0.006514507184987026 -0.006514507184987026 -0.006514507184987026 -0.01064556934575295 -0.01064556934575295 
-0.01064556934575295 -0.01064556934575295 -0.01473461830780944 -0.01473461830780944 -0.01473461830780944 -0.01473461830780944 -0.01876551646301165 -0.01876551646301165 -0.01876551646301165 
-0.01876551646301165 -0.0227223556978833 -0.0227223556978833 -0.0227223556978833 -0.0227223556978833 -0.02658952017567246 -0.02658952017567246 -0.02658952017567246 -0.02658952017567246 
-0.0303517479649243 -0.0303517479649243 -0.0303517479649243 -0.0303517479649243 -0.03399419127135321 -0.03399419127135321 -0.03399419127135321 -0.03399419127135321 -0.03750247503530312 