Title = RSC/Post/Linear_Advection_2D/Sine_Wave_2D/Quad100/
FileType = Solution
Variables = q
Zone T = RSC/Post/Linear_Advection_2D/Sine_Wave_2D/Quad100/
ZoneType = FETriangle
Nodes = 40000
Elements = 20000
DataPacking = Block
StrandID = 17
SolutionTime = 1.6
0.3331583451589177 0.3331583451589177 0.3331583451589177 0.3331583451589177 0.3012757144523587 0.3012757144523587 0.3012757144523587 0.3012757144523587 0.2682040861406377 0.2682040861406377 
0.2682040861406377 0.2682040861406377 0.2340739788317114 0.2340739788317114 0.2340739788317114 0.2340739788317114 0.1990200884665656 0.1990200884665656 0.1990200884665656 
0.1990200884665656 0.1631807567358713 0.1631807567358713 0.1631807567358713 0.1631807567358713 0.1266974251085369 0.1266974251085369 0.1266974251085369 0.1266974251085369 
0.08971407662684679 0.08971407662684679 0.08971407662684679 0.08971407662684679 0.05237666767117347 0.05237666767117347 0.05237666767117347 0.05237666767117347 0.01483255193682534 
0.01483255193682534 0.01483255193682534 0.01483255193682534 -0.02277010110366901 -0.02277010110366901 -0.02277010110366901 -0.02277010110366901 -0.06028289095777676 -0.06028289095777676 
-0.06028289095777676 -0.06028289095777676 -0.09755777178190751 -0.09755777178190751 -0.09755777178190751 -0.09755777178190751 -0.1344476366507213 -0.1344476366507213 -0.1344476366507213 
-0.1344476366507213 -0.1708068981209572 -0.1708068981209572 -0.1708068981209572 -0.1708068981209572 -0.2064920627985588 -0.2064920627985588 -0.2064920627985588 -0.2064920627985588 
-0.2413622976415445 -0.2413622976415445 -0.2413622976415445 -0.2413622976415445 -0.2752799857636841 -0.2752799857636841 -0.2752799857636841 -0.2752799857636841 -0.3081112695454771 
-0.3081112695454771 -0.3081112695454771 -0.3081112695454771 -0.3397265789090234 -0.3397265789090234 -0.3397265789090234 -0.3397265789090234 -0.3700011426719259 -0.3700011426719259 
-0.3700011426719259 -0.3700011426719259 -0.3988154809621455 -0.3988154809621455 -0.3988154809621455 -0.3988154809621455 -0.4260558767504695 -0.4260558767504695 -0.4260558767504695 
-0.4260558767504695 -0.4516148246396745 -0.4516148246396745 -0.4516148246396745 -0.4516148246396745 -0.4753914551392144 -0.4753914551392144 -0.4753914551392144 -0.4753914551392144 
-0.4972919327510169 -0.4972919327510169 -0.4972919327510169 -0.4972919327510169 -0.517229826295324 -0.517229826295324 -0.517229826295324 -0.517229826295324 -0.5351264500150741 
-0.5351264500150741 -0.5351264500150741 -0.5351264500150741 -0.5509111741126347 -0.5509111741126347 -0.5509111741126347 -0.5509111741126347 -0.5645217034933481 -0.5645217034933481 
-0.5645217034933481 -0.5645217034933481 -0.5759043236158067 -0.5759043236158067 -0.5759043236158067 -0.5759043236158067 -0.5850141124786115 -0.5850141124786115 -0.5850141124786115 
-0.5850141124786115 -0.5918151179069883 -0.5918151179069883 -0.5918151179069883 -0.5918151179069883 -0.5962804994395956 -0.5962804994395956 -0.5962804994395956 -0.5962804994395956 
-0.5983926342555624 -0.5983926342555624 -0.5983926342555624 -0.5983926342555624 -0.5981431867237131 -0.5981431867237131 -0.5981431867237131 -0.5981431867237131 -0.5955331412994938 
-0.5955331412994938 -0.5955331412994938 -0.5955331412994938 -0.5905727986397776 -0.5905727986397776 -0.5905727986397776 -0.5905727986397776 -0.5832817349508777 -0.5832817349508777 
-0.5832817349508777 -0.5832817349508777 -0.5736887247302034 -0.5736887247302034 -0.5736887247302034 -0.5736887247302034 -0.5618316272064668 -0.5618316272064668 -0.5618316272064668 
-0.5618316272064668 -0.5477572369266013 -0.5477572369266013 -0.5477572369266013 -0.5477572369266013 -0.5315210990790662 -0.5315210990790662 -0.5315210990790662 -0.5315210990790662 
-0.5131872902823553 -0.5131872902823553 -0.5131872902823553 -0.5131872902823553 -0.4928281657038709 -0.4928281657038709 -0.4928281657038709 -0.4928281657038709 -0.4705240735071262 
-0.4705240735071262 -0.4705240735071262 -0.4705240735071262 -0.446363037754251 -0.446363037754251 -0.446363037754251 -0.446363037754251 -0.420440411015234 -0.420440411015234 
-0.420440411015234 -0.420440411015234 -0.3928584980548927 -0.3928584980548927 -0.3928584980548927 -0.3928584980548927 -0.3637261520827043 -0.3637261520827043 -0.3637261520827043 
-0.3637261520827043 -0.3331583451589177 -0.3331583451589177 -0.3331583451589177 -0.3331583451589177 -0.3012757144523586 -0.3012757144523586 -0.3012757144523586 -0.3012757144523586 
-0.2682040861406377 -0.2682040861406377 -0.2682040861406377 -0.2682040861406377 -0.2340739788317111 -0.2340739788317111 -0.2340739788317111 -0.2340739788317111 -0.1990200884665648 
-0.1990200884665648 -0.1990200884665648 -0.1990200884665648 -0.1631807567358706 -0.1631807567358706 -0.1631807567358706 -0.1631807567358706 -0.1266974251085363 -0.1266974251085363 
-0.1266974251085363 -0.1266974251085363 -0.08971407662684641 -0.08971407662684641 -0.08971407662684641 -0.08971407662684641 -0.05237666767117363 -0.05237666767117363 -0.05237666767117363 
-0.05237666767117363 -0.01483255193682545 -0.01483255193682545 -0.01483255193682545 -0.01483255193682545 0.02277010110366893 0.02277010110366893 0.02277010110366893 0.02277010110366893 
0.06028289095777678 0.06028289095777678 0.06028289095777678 0.06028289095777678 0.09755777178190746 0.09755777178190746 0.09755777178190746 0.09755777178190746 0.1344476366507213 
0.1344476366507213 0.1344476366507213 0.1344476366507213 0.1708068981209577 0.1708068981209577 0.1708068981209577 0.1708068981209577 0.2064920627985591 0.2064920627985591 
0.2064920627985591 0.2064920627985591 0.2413622976415447 0.2413622976415447 0.2413622976415447 0.2413622976415447 0.2752799857636838 0.2752799857636838 0.2752799857636838 
0.2752799857636838 0.3081112695454769 0.3081112695454769 0.3081112695454769 0.3081112695454769 0.339726578909023 0.339726578909023 0.339726578909023 0.339726578909023 
0.3700011426719256 0.3700011426719256 0.3700011426719256 0.3700011426719256 0.398815480962145 0.398815480962145 0.398815480962145 0.398815480962145 0.4260558767504694 
0.4260558767504694 0.4260558767504694 0.4260558767504694 0.4516148246396743 0.4516148246396743 0.4516148246396743 0.4516148246396743 0.4753914551392143 0.4753914551392143 
0.4753914551392143 0.4753914551392143 0.4972919327510166 0.4972919327510166 0.4972919327510166 0.4972919327510166 0.5172298262953238 0.5172298262953238 0.5172298262953238 
0.5172298262953238 0.5351264500150741 0.5351264500150741 0.5351264500150741 0.5351264500150741 0.5509111741126347 0.5509111741126347 0.5509111741126347 0.5509111741126347 
0.5645217034933474 0.5645217034933474 0.5645217034933474 0.5645217034933474 0.5759043236158058 0.5759043236158058 0.5759043236158058 0.5759043236158058 0.5850141124786111 
0.5850141124786111 0.5850141124786111 0.5850141124786111 0.5918151179069892 0.5918151179069892 0.5918151179069892 0.5918151179069892 0.596280499439596 0.596280499439596 
0.596280499439596 0.596280499439596 0.5983926342555628 0.5983926342555628 0.5983926342555628 0.5983926342555628 0.5981431867237134 0.5981431867237134 0.5981431867237134 
0.5981431867237134 0.595533141299494 0.595533141299494 0.595533141299494 0.595533141299494 0.5905727986397779 0.5905727986397779 0.5905727986397779 0.5905727986397779 
0.5832817349508777 0.5832817349508777 0.5832817349508777 0.5832817349508777 0.5736887247302036 0.5736887247302036 0.5736887247302036 0.5736887247302036 0.5618316272064668 
0.5618316272064668 0.5618316272064668 0.5618316272064668 0.5477572369266013 0.5477572369266013 0.5477572369266013 0.5477572369266013 0.5315210990790649 0.5315210990790649 
0.5315210990790649 0.5315210990790649 0.5131872902823547 0.5131872902823547 0.5131872902823547 0.5131872902823547 0.4928281657038714 0.4928281657038714 0.4928281657038714 
0.4928281657038714 0.4705240735071266 0.4705240735071266 0.4705240735071266 0.4705240735071266 0.446363037754251 0.446363037754251 0.446363037754251 0.446363037754251 
0.4204404110152342 0.4204404110152342 0.4204404110152342 0.4204404110152342 0.3928584980548928 0.3928584980548928 0.3928584980548928 0.3928584980548928 0.3637261520827041 
0.3637261520827041 0.3637261520827041 0.3637261520827041 0.3385053224784634 0.3385053224784634 0.3385053224784634 0.3385053224784634 0.3061112457920039 0.3061112457920039 
0.3061112457920039 0.3061112457920039 0.2725090878673289 0.2725090878673289 0.2725090878673289 0.2725090878673289 0.2378314610704015 0.2378314610704015 0.2378314610704015 
0.2378314610704015 0.2022152221514887 0.2022152221514887 0.2022152221514887 0.2022152221514887 0.165800932134091 0.165800932134091 0.165800932134091 0.165800932134091 
0.1287323015848006 0.1287323015848006 0.1287323015848006 0.1287323015848006 0.09115562345334935 0.09115562345334935 0.09115562345334935 0.09115562345334935 0.05321919572117073 
0.05321919572117073 0.05321919572117073 0.05321919572117073 0.01507273613701842 0.01507273613701842 0.01507273613701842 0.01507273613701842 -0.02313320865058859 -0.02313320865058859 
-0.02313320865058859 -0.02313320865058859 -0.06124785723220932 -0.06124785723220932 -0.06124785723220932 -0.06124785723220932 -0.09912078850281908 -0.09912078850281908 -0.09912078850281908 
-0.09912078850281908 -0.1366025353051886 -0.1366025353051886 -0.1366025353051886 -0.1366025353051886 -0.1735451743084708 -0.1735451743084708 -0.1735451743084708 -0.1735451743084708 
-0.209802909794006 -0.209802909794006 -0.209802909794006 -0.209802909794006 -0.2452326490444162 -0.2452326490444162 -0.2452326490444162 -0.2452326490444162 -0.2796945670651887 
-0.2796945670651887 -0.2796945670651887 -0.2796945670651887 -0.3130526584100478 -0.3130526584100478 -0.3130526584100478 -0.3130526584100478 -0.345175273932318 -0.345175273932318 
-0.345175273932318 -0.345175273932318 -0.3759356403439592 -0.3759356403439592 -0.3759356403439592 -0.3759356403439592 -0.4052123605318201 -0.4052123605318201 -0.4052123605318201 
-0.4052123605318201 -0.43288989265658 -0.43288989265658 -0.43288989265658 -0.43288989265658 -0.4588590061436043 -0.4588590061436043 -0.4588590061436043 -0.4588590061436043 
-0.4830172127661193 -0.4830172127661193 -0.4830172127661193 -0.4830172127661193 -0.5052691711194205 -0.5052691711194205 -0.5052691711194205 -0.5052691711194205 -0.5255270628898402 
-0.5255270628898402 -0.5255270628898402 -0.5255270628898402 -0.5437109394335109 -0.5437109394335109 -0.5437109394335109 -0.5437109394335109 -0.5597490372971379 -0.5597490372971379 
-0.5597490372971379 -0.5597490372971379 -0.5735780614355634 -0.5735780614355634 -0.5735780614355634 -0.5735780614355634 -0.5851434350083933 -0.5851434350083933 -0.5851434350083933 
-0.5851434350083933 -0.5943995147698518 -0.5943995147698518 -0.5943995147698518 -0.5943995147698518 -0.6013097712018211 -0.6013097712018211 -0.6013097712018211 -0.6013097712018211 
-0.60584693267916 -0.60584693267916 -0.60584693267916 -0.60584693267916 -0.6079930930983497 -0.6079930930983497 -0.6079930930983497 -0.6079930930983497 -0.6077397825447031 
-0.6077397825447031 -0.6077397825447031 -0.6077397825447031 -0.6050880007192487 -0.6050880007192487 -0.6050880007192487 -0.6050880007192487 -0.6000482129933677 -0.6000482129933677 
-0.6000482129933677 -0.6000482129933677 -0.5926403091067544 -0.5926403091067544 -0.5926403091067544 -0.5926403091067544 -0.5828935246716993 -0.5828935246716993 -0.5828935246716993 
-0.5828935246716993 -0.5708463257934862 -0.5708463257934862 -0.5708463257934862 -0.5708463257934862 -0.556546257262245 -0.556546257262245 -0.556546257262245 -0.556546257262245 
-0.5400497549153895 -0.5400497549153895 -0.5400497549153895 -0.5400497549153895 -0.5214219229111468 -0.5214219229111468 -0.5214219229111468 -0.5214219229111468 -0.5007362767921903 
-0.5007362767921903 -0.5007362767921903 -0.5007362767921903 -0.4780744533533797 -0.4780744533533797 -0.4780744533533797 -0.4780744533533797 -0.4535258884586256 -0.4535258884586256 
-0.4535258884586256 -0.4535258884586256 -0.4271874640783949 -0.4271874640783949 -0.4271874640783949 -0.4271874640783949 -0.3991631259408347 -0.3991631259408347 -0.3991631259408347 
-0.3991631259408347 -0.3695634733054721 -0.3695634733054721 -0.3695634733054721 -0.3695634733054721 -0.3385053224784635 -0.3385053224784635 -0.3385053224784635 -0.3385053224784635 
-0.3061112457920037 -0.3061112457920037 -0.3061112457920037 -0.3061112457920037 -0.2725090878673295 -0.2725090878673295 -0.2725090878673295 -0.2725090878673295 -0.2378314610704018 
-0.2378314610704018 -0.2378314610704018 -0.2378314610704018 -0.202215222151489 -0.202215222151489 -0.202215222151489 -0.202215222151489 -0.1658009321340913 -0.1658009321340913 
-0.1658009321340913 -0.1658009321340913 -0.1287323015848006 -0.1287323015848006 -0.1287323015848006 -0.1287323015848006 -0.09115562345334924 -0.09115562345334924 -0.09115562345334924 
-0.09115562345334924 -0.05321919572117099 -0.05321919572117099 -0.05321919572117099 -0.05321919572117099 -0.01507273613701864 -0.01507273613701864 -0.01507273613701864 -0.01507273613701864 
0.02313320865058838 0.02313320865058838 0.02313320865058838 0.02313320865058838 0.06124785723220924 0.06124785723220924 0.06124785723220924 0.06124785723220924 0.09912078850281875 
0.09912078850281875 0.09912078850281875 0.09912078850281875 0.1366025353051883 0.1366025353051883 0.1366025353051883 0.1366025353051883 0.1735451743084706 0.1735451743084706 
0.1735451743084706 0.1735451743084706 0.209802909794006 0.209802909794006 0.209802909794006 0.209802909794006 0.2452326490444172 0.2452326490444172 0.2452326490444172 
0.2452326490444172 0.2796945670651891 0.2796945670651891 0.2796945670651891 0.2796945670651891 0.3130526584100485 0.3130526584100485 0.3130526584100485 0.3130526584100485 
0.3451752739323179 0.3451752739323179 0.3451752739323179 0.3451752739323179 0.3759356403439598 0.3759356403439598 0.3759356403439598 0.3759356403439598 0.4052123605318199 
0.4052123605318199 0.4052123605318199 0.4052123605318199 0.4328898926565799 0.4328898926565799 0.4328898926565799 0.4328898926565799 0.4588590061436036 0.4588590061436036 
0.4588590061436036 0.4588590061436036 0.4830172127661186 0.4830172127661186 0.4830172127661186 0.4830172127661186 0.5052691711194199 0.5052691711194199 0.5052691711194199 
0.5052691711194199 0.5255270628898399 0.5255270628898399 0.5255270628898399 0.5255270628898399 0.5437109394335108 0.5437109394335108 0.5437109394335108 0.5437109394335108 
0.5597490372971379 0.5597490372971379 0.5597490372971379 0.5597490372971379 0.5735780614355633 0.5735780614355633 0.5735780614355633 0.5735780614355633 0.5851434350083928 
0.5851434350083928 0.5851434350083928 0.5851434350083928 0.5943995147698513 0.5943995147698513 0.5943995147698513 0.5943995147698513 0.6013097712018208 0.6013097712018208 
0.6013097712018208 0.6013097712018208 0.6058469326791601 0.6058469326791601 0.6058469326791601 0.6058469326791601 0.60799309309835 0.60799309309835 0.60799309309835 
0.60799309309835 0.6077397825447035 0.6077397825447035 0.6077397825447035 0.6077397825447035 0.605088000719249 0.605088000719249 0.605088000719249 0.605088000719249 
0.600048212993368 0.600048212993368 0.600048212993368 0.600048212993368 0.5926403091067545 0.5926403091067545 0.5926403091067545 0.5926403091067545 0.5828935246716997 
0.5828935246716997 0.5828935246716997 0.5828935246716997 0.5708463257934859 0.5708463257934859 0.5708463257934859 0.5708463257934859 0.556546257262245 0.556546257262245 
0.556546257262245 0.556546257262245 0.5400497549153892 0.5400497549153892 0.5400497549153892 0.5400497549153892 0.5214219229111461 0.5214219229111461 0.5214219229111461 
0.5214219229111461 0.5007362767921909 0.5007362767921909 0.5007362767921909 0.5007362767921909 0.4780744533533802 0.4780744533533802 0.4780744533533802 0.4780744533533802 
0.4535258884586257 0.4535258884586257 0.4535258884586257 0.4535258884586257 0.4271874640783947 0.4271874640783947 0.4271874640783947 0.4271874640783947 0.3991631259408346 
0.3991631259408346 0.3991631259408346 0.3991631259408346 0.3695634733054719 0.3695634733054719 0.3695634733054719 0.3695634733054719 0.342516373938558 0.342516373938558 
0.342516373938558 0.342516373938558 0.3097386958934336 0.3097386958934336 0.3097386958934336 0.3097386958934336 0.2757386207217676 0.2757386207217676 0.2757386207217676 
0.2757386207217676 0.2406503311871058 0.2406503311871058 0.2406503311871058 0.2406503311871058 0.2046123047379274 0.2046123047379274 0.2046123047379274 0.2046123047379274 
0.1677667670004181 0.1677667670004181 0.1677667670004181 0.1677667670004181 0.1302591304789034 0.1302591304789034 0.1302591304789034 0.1302591304789034 0.09223742067912452 
0.09223742067912452 0.09223742067912452 0.09223742067912452 0.05385169191919429 0.05385169191919429 0.05385169191919429 0.05385169191919429 0.01525343513375681 0.01525343513375681 
0.01525343513375681 0.01525343513375681 -0.023405019991522 -0.023405019991522 -0.023405019991522 -0.023405019991522 -0.06197110619563068 -0.06197110619563068 -0.06197110619563068 
-0.06197110619563068 -0.1002926207554906 -0.1002926207554906 -0.1002926207554906 -0.1002926207554906 -0.1382183261605686 -0.1382183261605686 -0.1382183261605686 -0.1382183261605686 
-0.1755985469782374 -0.1755985469782374 -0.1755985469782374 -0.1755985469782374 -0.2122857605543284 -0.2122857605543284 -0.2122857605543284 -0.2122857605543284 -0.24813517921765 
-0.24813517921765 -0.24813517921765 -0.24813517921765 -0.2830053216907799 -0.2830053216907799 -0.2830053216907799 -0.2830053216907799 -0.3167585714520293 -0.3167585714520293 
-0.3167585714520293 -0.3167585714520293 -0.3492617198449839 -0.3492617198449839 -0.3492617198449839 -0.3492617198449839 -0.3803864917922118 -0.3803864917922118 -0.3803864917922118 
-0.3803864917922118 -0.4100100520383935 -0.4100100520383935 -0.4100100520383935 -0.4100100520383935 -0.4380154899249547 -0.4380154899249547 -0.4380154899249547 -0.4380154899249547 
-0.4642922807830246 -0.4642922807830246 -0.4642922807830246 -0.4642922807830246 -0.4887367221238104 -0.4887367221238104 -0.4887367221238104 -0.4887367221238104 -0.5112523429049429 
-0.5112523429049429 -0.5112523429049429 -0.5112523429049429 -0.5317502842576075 -0.5317502842576075 -0.5317502842576075 -0.5317502842576075 -0.5501496501719042 -0.5501496501719042 
-0.5501496501719042 -0.5501496501719042 -0.5663778267564397 -0.5663778267564397 -0.5663778267564397 -0.5663778267564397 -0.5803707688121835 -0.5803707688121835 -0.5803707688121835 
-0.5803707688121835 -0.592073252589609 -0.592073252589609 -0.592073252589609 -0.592073252589609 -0.6014390937316029 -0.6014390937316029 -0.6014390937316029 -0.6014390937316029 
-0.6084313295420232 -0.6084313295420232 -0.6084313295420232 -0.6084313295420232 -0.613022364860575 -0.613022364860575 -0.613022364860575 -0.613022364860575 -0.6151940809683005 
-0.6151940809683005 -0.6151940809683005 -0.6151940809683005 -0.6149379070938854 -0.6149379070938854 -0.6149379070938854 -0.6149379070938854 -0.6122548542385773 -0.6122548542385773 
-0.6122548542385773 -0.6122548542385773 -0.6071555111862255 -0.6071555111862255 -0.6071555111862255 -0.6071555111862255 -0.5996600027141896 -0.5996600027141896 -0.5996600027141896 
-0.5996600027141896 -0.589797910170037 -0.589797910170037 -0.589797910170037 -0.589797910170037 -0.5776081547274776 -0.5776081547274776 -0.5776081547274776 -0.5776081547274776 
-0.5631388437822737 -0.5631388437822737 -0.5631388437822737 -0.5631388437822737 -0.5464470810943267 -0.5464470810943267 -0.5464470810943267 -0.5464470810943267 -0.5275987414252252 
-0.5275987414252252 -0.5275987414252252 -0.5275987414252252 -0.5066682105606553 -0.5066682105606553 -0.5066682105606553 -0.5066682105606553 -0.4837380917436892 -0.4837380917436892 
-0.4837380917436892 -0.4837380917436892 -0.4588988796775234 -0.4588988796775234 -0.4588988796775234 -0.4588988796775234 -0.4322486033842261 -0.4322486033842261 -0.4322486033842261 
-0.4322486033842261 -0.4038924393289738 -0.4038924393289738 -0.4038924393289738 -0.4038924393289738 -0.3739422963365939 -0.3739422963365939 -0.3739422963365939 -0.3739422963365939 
-0.3425163739385583 -0.3425163739385583 -0.3425163739385583 -0.3425163739385583 -0.3097386958934334 -0.3097386958934334 -0.3097386958934334 -0.3097386958934334 -0.2757386207217679 
-0.2757386207217679 -0.2757386207217679 -0.2757386207217679 -0.2406503311871058 -0.2406503311871058 -0.2406503311871058 -0.2406503311871058 -0.2046123047379271 -0.2046123047379271 
-0.2046123047379271 -0.2046123047379271 -0.1677667670004174 -0.1677667670004174 -0.1677667670004174 -0.1677667670004174 -0.1302591304789033 -0.1302591304789033 -0.1302591304789033 
-0.1302591304789033 -0.09223742067912413 -0.09223742067912413 -0.09223742067912413 -0.09223742067912413 -0.05385169191919442 -0.05385169191919442 -0.05385169191919442 -0.05385169191919442 
-0.01525343513375698 -0.01525343513375698 -0.01525343513375698 -0.01525343513375698 0.02340501999152177 0.02340501999152177 0.02340501999152177 0.02340501999152177 0.06197110619563066 
0.06197110619563066 0.06197110619563066 0.06197110619563066 0.1002926207554901 0.1002926207554901 0.1002926207554901 0.1002926207554901 0.1382183261605684 0.1382183261605684 
0.1382183261605684 0.1382183261605684 0.1755985469782378 0.1755985469782378 0.1755985469782378 0.1755985469782378 0.212285760554329 0.212285760554329 0.212285760554329 
0.212285760554329 0.2481351792176506 0.2481351792176506 0.2481351792176506 0.2481351792176506 0.2830053216907802 0.2830053216907802 0.2830053216907802 0.2830053216907802 
0.3167585714520293 0.3167585714520293 0.3167585714520293 0.3167585714520293 0.3492617198449838 0.3492617198449838 0.3492617198449838 0.3492617198449838 0.380386491792212 
0.380386491792212 0.380386491792212 0.380386491792212 0.4100100520383937 0.4100100520383937 0.4100100520383937 0.4100100520383937 0.4380154899249549 0.4380154899249549 
0.4380154899249549 0.4380154899249549 0.4642922807830245 0.4642922807830245 0.4642922807830245 0.4642922807830245 0.4887367221238103 0.4887367221238103 0.4887367221238103 
0.4887367221238103 0.5112523429049427 0.5112523429049427 0.5112523429049427 0.5112523429049427 0.5317502842576074 0.5317502842576074 0.5317502842576074 0.5317502842576074 
0.5501496501719041 0.5501496501719041 0.5501496501719041 0.5501496501719041 0.5663778267564396 0.5663778267564396 0.5663778267564396 0.5663778267564396 0.5803707688121835 
0.5803707688121835 0.5803707688121835 0.5803707688121835 0.592073252589609 0.592073252589609 0.592073252589609 0.592073252589609 0.6014390937316024 0.6014390937316024 
0.6014390937316024 0.6014390937316024 0.6084313295420229 0.6084313295420229 0.6084313295420229 0.6084313295420229 0.6130223648605749 0.6130223648605749 0.6130223648605749 
0.6130223648605749 0.6151940809683005 0.6151940809683005 0.6151940809683005 0.6151940809683005 0.6149379070938854 0.6149379070938854 0.6149379070938854 0.6149379070938854 
0.6122548542385773 0.6122548542385773 0.6122548542385773 0.6122548542385773 0.6071555111862255 0.6071555111862255 0.6071555111862255 0.6071555111862255 0.59966000271419 
0.59966000271419 0.59966000271419 0.59966000271419 0.5897979101700372 0.5897979101700372 0.5897979101700372 0.5897979101700372 0.5776081547274776 0.5776081547274776 
0.5776081547274776 0.5776081547274776 0.5631388437822735 0.5631388437822735 0.5631388437822735 0.5631388437822735 0.5464470810943269 0.5464470810943269 0.5464470810943269 
0.5464470810943269 0.5275987414252248 0.5275987414252248 0.5275987414252248 0.5275987414252248 0.5066682105606548 0.5066682105606548 0.5066682105606548 0.5066682105606548 
0.4837380917436889 0.4837380917436889 0.4837380917436889 0.4837380917436889 0.4588988796775233 0.4588988796775233 0.4588988796775233 0.4588988796775233 0.4322486033842257 
0.4322486033842257 0.4322486033842257 0.4322486033842257 0.4038924393289738 0.4038924393289738 0.4038924393289738 0.4038924393289738 0.3739422963365938 0.3739422963365938 
0.3739422963365938 0.3739422963365938 0.3451756697515641 0.3451756697515641 0.3451756697515641 0.3451756697515641 0.3121437488683219 0.3121437488683219 0.3121437488683219 
0.3121437488683219 0.2778799392132106 0.2778799392132106 0.2778799392132106 0.2778799392132106 0.2425194643892931 0.2425194643892931 0.2425194643892931 0.2425194643892931 
0.2062018760360357 0.2062018760360357 0.2062018760360357 0.2062018760360357 0.1690705030827398 0.1690705030827398 0.1690705030827398 0.1690705030827398 0.1312718860947421 
0.1312718860947421 0.1312718860947421 0.1312718860947421 0.09295519894474837 0.09295519894474837 0.09295519894474837 0.09295519894474837 0.05427166009171062 0.05427166009171062 
0.05427166009171062 0.05427166009171062 0.01537393579065396 0.01537393579065396 0.01537393579065396 0.01537393579065396 -0.02358446241128536 -0.02358446241128536 -0.02358446241128536 
-0.02358446241128536 -0.06244978351480316 -0.06244978351480316 -0.06244978351480316 -0.06244978351480316 -0.1010686438533803 -0.1010686438533803 -0.1010686438533803 -0.1010686438533803 
-0.1392886324285394 -0.1392886324285394 -0.1392886324285394 -0.1392886324285394 -0.1769589124064261 -0.1769589124064261 -0.1769589124064261 -0.1769589124064261 -0.2139308164018817 
-0.2139308164018817 -0.2139308164018817 -0.2139308164018817 -0.2500584332006919 -0.2500584332006919 -0.2500584332006919 -0.2500584332006919 -0.2851991836044909 -0.2851991836044909 
-0.2851991836044909 -0.2851991836044909 -0.3192143831257157 -0.3192143831257157 -0.3192143831257157 -0.3192143831257157 -0.3519697893119237 -0.3519697893119237 -0.3519697893119237 
-0.3519697893119237 -0.3833361315394182 -0.3833361315394182 -0.3833361315394182 -0.3833361315394182 -0.4131896211853463 -0.4131896211853463 -0.4131896211853463 -0.4131896211853463 
-0.4414124401648382 -0.4414124401648382 -0.4414124401648382 -0.4414124401648382 -0.4678932059051606 -0.4678932059051606 -0.4678932059051606 -0.4678932059051606 -0.4925274109218481 
-0.4925274109218481 -0.4925274109218481 -0.4925274109218481 -0.5152178352619974 -0.5152178352619974 -0.5152178352619974 -0.5152178352619974 -0.5358749301870067 -0.5358749301870067 
-0.5358749301870067 -0.5358749301870067 -0.5544171715805362 -0.5544171715805362 -0.5544171715805362 -0.5544171715805362 -0.57077138168695 -0.57077138168695 -0.57077138168695 
-0.57077138168695 -0.5848730179104851 -0.5848730179104851 -0.5848730179104851 -0.5848730179104851 -0.5966664275353931 -0.5966664275353931 -0.5966664275353931 -0.5966664275353931 
-0.6061050673617805 -0.6061050673617805 -0.6061050673617805 -0.6061050673617805 -0.6131516873903569 -0.6131516873903569 -0.6131516873903569 -0.6131516873903569 -0.6177784778311636 
-0.6177784778311636 -0.6177784778311636 -0.6177784778311636 -0.6199671788561105 -0.6199671788561105 -0.6199671788561105 -0.6199671788561105 -0.6197091526621744 -0.6197091526621744 
-0.6197091526621744 -0.6197091526621744 -0.6170054175608621 -0.6170054175608621 -0.6170054175608621 -0.6170054175608621 -0.6118666439593989 -0.6118666439593989 -0.6118666439593989 
-0.6118666439593989 -0.6043131122495081 -0.6043131122495081 -0.6043131122495081 -0.6043131122495081 -0.5943746327699677 -0.5943746327699677 -0.5943746327699677 -0.5943746327699677 
-0.5820904281588246 -0.5820904281588246 -0.5820904281588246 -0.5820904281588246 -0.5675089785595592 -0.5675089785595592 -0.5675089785595592 -0.5675089785595592 -0.5506878302921098 
-0.5506878302921098 -0.5506878302921098 -0.5506878302921098 -0.5316933687438357 -0.5316933687438357 -0.5316933687438357 -0.5316933687438357 -0.510600556376724 -0.510600556376724 
-0.510600556376724 -0.510600556376724 -0.4874926368847983 -0.4874926368847983 -0.4874926368847983 -0.4874926368847983 -0.4624608066692895 -0.4624608066692895 -0.4624608066692895 
-0.4624608066692895 -0.4356038549281024 -0.4356038549281024 -0.4356038549281024 -0.4356038549281024 -0.4070277737799851 -0.4070277737799851 -0.4070277737799851 -0.4070277737799851 
-0.3768453399620603 -0.3768453399620603 -0.3768453399620603 -0.3768453399620603 -0.3451756697515642 -0.3451756697515642 -0.3451756697515642 -0.3451756697515642 -0.3121437488683219 
-0.3121437488683219 -0.3121437488683219 -0.3121437488683219 -0.2778799392132105 -0.2778799392132105 -0.2778799392132105 -0.2778799392132105 -0.242519464389293 -0.242519464389293 
-0.242519464389293 -0.242519464389293 -0.2062018760360353 -0.2062018760360353 -0.2062018760360353 -0.2062018760360353 -0.1690705030827391 -0.1690705030827391 -0.1690705030827391 
-0.1690705030827391 -0.1312718860947421 -0.1312718860947421 -0.1312718860947421 -0.1312718860947421 -0.09295519894474741 -0.09295519894474741 -0.09295519894474741 -0.09295519894474741 
-0.05427166009171076 -0.05427166009171076 -0.05427166009171076 -0.05427166009171076 -0.01537393579065408 -0.01537393579065408 -0.01537393579065408 -0.01537393579065408 0.02358446241128515 
0.02358446241128515 0.02358446241128515 0.02358446241128515 0.06244978351480293 0.06244978351480293 0.06244978351480293 0.06244978351480293 0.1010686438533791 0.1010686438533791 
0.1010686438533791 0.1010686438533791 0.1392886324285396 0.1392886324285396 0.1392886324285396 0.1392886324285396 0.1769589124064258 0.1769589124064258 0.1769589124064258 
0.1769589124064258 0.2139308164018811 0.2139308164018811 0.2139308164018811 0.2139308164018811 0.2500584332006918 0.2500584332006918 0.2500584332006918 0.2500584332006918 
0.2851991836044909 0.2851991836044909 0.2851991836044909 0.2851991836044909 0.3192143831257158 0.3192143831257158 0.3192143831257158 0.3192143831257158 0.3519697893119239 
0.3519697893119239 0.3519697893119239 0.3519697893119239 0.3833361315394185 0.3833361315394185 0.3833361315394185 0.3833361315394185 0.413189621185347 0.413189621185347 
0.413189621185347 0.413189621185347 0.4414124401648383 0.4414124401648383 0.4414124401648383 0.4414124401648383 0.4678932059051609 0.4678932059051609 0.4678932059051609 
0.4678932059051609 0.4925274109218482 0.4925274109218482 0.4925274109218482 0.4925274109218482 0.5152178352619973 0.5152178352619973 0.5152178352619973 0.5152178352619973 
0.5358749301870067 0.5358749301870067 0.5358749301870067 0.5358749301870067 0.5544171715805361 0.5544171715805361 0.5544171715805361 0.5544171715805361 0.5707713816869496 