Title = RSC/Post/Linear_Advection_2D/Sine_Wave_2D/Quad100/
FileType = Solution
Variables = q
Zone T = RSC/Post/Linear_Advection_2D/Sine_Wave_2D/Quad100/
ZoneType = FETriangle
Nodes = 40000
Elements = 20000
DataPacking = Block
StrandID = 16
SolutionTime = 1.5
-0.02411004129153534 -0.02411004129153534 -0.02411004129153534 -0.02411004129153534 -0.06428639535105693 -0.06428639535105693 -0.06428639535105693 -0.06428639535105693 -0.1042090403777882 -0.1042090403777882 
-0.1042090403777882 -0.1042090403777882 -0.1437204199307303 -0.1437204199307303 -0.1437204199307303 -0.1437204199307303 -0.1826646006458201 -0.1826646006458201 -0.1826646006458201 
-0.1826646006458201 -0.220887887633679 -0.220887887633679 -0.220887887633679 -0.220887887633679 -0.2582394310431245 -0.2582394310431245 -0.2582394310431245 -0.2582394310431245 
-0.2945718213966164 -0.2945718213966164 -0.2945718213966164 -0.2945718213966164 -0.3297416713481198 -0.3297416713481198 -0.3297416713481198 -0.3297416713481198 -0.3636101815674524 
-0.3636101815674524 -0.3636101815674524 -0.3636101815674524 -0.3960436885178286 -0.3960436885178286 -0.3960436885178286 -0.3960436885178286 -0.4269141919647755 -0.4269141919647755 
-0.4269141919647755 -0.4269141919647755 -0.4560998601345796 -0.4560998601345796 -0.4560998601345796 -0.4560998601345796 -0.4834855105286378 -0.4834855105286378 -0.4834855105286378 
-0.4834855105286378 -0.5089630644961584 -0.5089630644961584 -0.5089630644961584 -0.5089630644961584 -0.532431973771219 -0.532431973771219 -0.532431973771219 -0.532431973771219 
-0.5537996172908362 -0.5537996172908362 -0.5537996172908362 -0.5537996172908362 -0.5729816667279846 -0.5729816667279846 -0.5729816667279846 -0.5729816667279846 -0.5899024192969814 
-0.5899024192969814 -0.5899024192969814 -0.5899024192969814 -0.6044950965177923 -0.6044950965177923 -0.6044950965177923 -0.6044950965177923 -0.6167021077601877 -0.6167021077601877 
-0.6167021077601877 -0.6167021077601877 -0.6264752775276471 -0.6264752775276471 -0.6264752775276471 -0.6264752775276471 -0.6337760355840345 -0.6337760355840345 -0.6337760355840345 
-0.6337760355840345 -0.6385755691727006 -0.6385755691727006 -0.6385755691727006 -0.6385755691727006 -0.6408549367272691 -0.6408549367272691 -0.6408549367272691 -0.6408549367272691 
-0.6406051426253462 -0.6406051426253462 -0.6406051426253462 -0.6406051426253462 -0.6378271726901319 -0.6378271726901319 -0.6378271726901319 -0.6378271726901319 -0.6325319902998268 
-0.6325319902998268 -0.6325319902998268 -0.6325319902998268 -0.6247404931201868 -0.6247404931201868 -0.6247404931201868 -0.6247404931201868 -0.6144834306309843 -0.6144834306309843 
-0.6144834306309843 -0.6144834306309843 -0.6018012827718566 -0.6018012827718566 -0.6018012827718566 -0.6018012827718566 -0.586744100186481 -0.586744100186481 -0.586744100186481 
-0.586744100186481 -0.5693713066955514 -0.5693713066955514 -0.5693713066955514 -0.5693713066955514 -0.5497514647781014 -0.5497514647781014 -0.5497514647781014 -0.5497514647781014 
-0.5279620049867262 -0.5279620049867262 -0.5279620049867262 -0.5279620049867262 -0.504088920364565 -0.504088920364565 -0.504088920364565 -0.504088920364565 -0.4782264270700463 
-0.4782264270700463 -0.4782264270700463 -0.4782264270700463 -0.4504765925487544 -0.4504765925487544 -0.4504765925487544 -0.4504765925487544 -0.4209489327198515 -0.4209489327198515 
-0.4209489327198515 -0.4209489327198515 -0.3897599797667775 -0.3897599797667775 -0.3897599797667775 -0.3897599797667775 -0.3570328222379612 -0.3570328222379612 -0.3570328222379612 
-0.3570328222379612 -0.3228966192725524 -0.3228966192725524 -0.3228966192725524 -0.3228966192725524 -0.2874860908683094 -0.2874860908683094 -0.2874860908683094 -0.2874860908683094 
-0.2509409862033092 -0.2509409862033092 -0.2509409862033092 -0.2509409862033092 -0.2134055321097956 -0.2134055321097956 -0.2134055321097956 -0.2134055321097956 -0.1750278638767589 
-0.1750278638767589 -0.1750278638767589 -0.1750278638767589 -0.1359594406276258 -0.1359594406276258 -0.1359594406276258 -0.1359594406276258 -0.09635444758029556 -0.09635444758029556 
-0.09635444758029556 -0.09635444758029556 -0.05636918754852564 -0.05636918754852564 -0.05636918754852564 -0.05636918754852564 -0.01616146408613384 -0.01616146408613384 -0.01616146408613384 
-0.01616146408613384 0.02411004129153531 0.02411004129153531 0.02411004129153531 0.02411004129153531 0.06428639535105724 0.06428639535105724 0.06428639535105724 0.06428639535105724 
0.1042090403777885 0.1042090403777885 0.1042090403777885 0.1042090403777885 0.1437204199307309 0.1437204199307309 0.1437204199307309 0.1437204199307309 0.1826646006458207 
0.1826646006458207 0.1826646006458207 0.1826646006458207 0.2208878876336793 0.2208878876336793 0.2208878876336793 0.2208878876336793 0.2582394310431247 0.2582394310431247 
0.2582394310431247 0.2582394310431247 0.294571821396616 0.294571821396616 0.294571821396616 0.294571821396616 0.3297416713481203 0.3297416713481203 0.3297416713481203 
0.3297416713481203 0.3636101815674526 0.3636101815674526 0.3636101815674526 0.3636101815674526 0.3960436885178287 0.3960436885178287 0.3960436885178287 0.3960436885178287 
0.4269141919647758 0.4269141919647758 0.4269141919647758 0.4269141919647758 0.4560998601345797 0.4560998601345797 0.4560998601345797 0.4560998601345797 0.4834855105286378 
0.4834855105286378 0.4834855105286378 0.4834855105286378 0.5089630644961602 0.5089630644961602 0.5089630644961602 0.5089630644961602 0.5324319737712202 0.5324319737712202 
0.5324319737712202 0.5324319737712202 0.5537996172908364 0.5537996172908364 0.5537996172908364 0.5537996172908364 0.5729816667279845 0.5729816667279845 0.5729816667279845 
0.5729816667279845 0.589902419296981 0.589902419296981 0.589902419296981 0.589902419296981 0.6044950965177922 0.6044950965177922 0.6044950965177922 0.6044950965177922 
0.6167021077601873 0.6167021077601873 0.6167021077601873 0.6167021077601873 0.6264752775276465 0.6264752775276465 0.6264752775276465 0.6264752775276465 0.6337760355840341 
0.6337760355840341 0.6337760355840341 0.6337760355840341 0.6385755691727002 0.6385755691727002 0.6385755691727002 0.6385755691727002 0.6408549367272688 0.6408549367272688 
0.6408549367272688 0.6408549367272688 0.6406051426253461 0.6406051426253461 0.6406051426253461 0.6406051426253461 0.6378271726901316 0.6378271726901316 0.6378271726901316 
0.6378271726901316 0.6325319902998265 0.6325319902998265 0.6325319902998265 0.6325319902998265 0.6247404931201866 0.6247404931201866 0.6247404931201866 0.6247404931201866 
0.6144834306309834 0.6144834306309834 0.6144834306309834 0.6144834306309834 0.6018012827718555 0.6018012827718555 0.6018012827718555 0.6018012827718555 0.5867441001864807 
0.5867441001864807 0.5867441001864807 0.5867441001864807 0.569371306695552 0.569371306695552 0.569371306695552 0.569371306695552 0.5497514647781017 0.5497514647781017 
0.5497514647781017 0.5497514647781017 0.5279620049867263 0.5279620049867263 0.5279620049867263 0.5279620049867263 0.5040889203645652 0.5040889203645652 0.5040889203645652 
0.5040889203645652 0.4782264270700465 0.4782264270700465 0.4782264270700465 0.4782264270700465 0.4504765925487548 0.4504765925487548 0.4504765925487548 0.4504765925487548 
0.4209489327198517 0.4209489327198517 0.4209489327198517 0.4209489327198517 0.3897599797667779 0.3897599797667779 0.3897599797667779 0.3897599797667779 0.357032822237961 
0.357032822237961 0.357032822237961 0.357032822237961 0.3228966192725521 0.3228966192725521 0.3228966192725521 0.3228966192725521 0.2874860908683085 0.2874860908683085 
0.2874860908683085 0.2874860908683085 0.2509409862033083 0.2509409862033083 0.2509409862033083 0.2509409862033083 0.2134055321097957 0.2134055321097957 0.2134055321097957 
0.2134055321097957 0.1750278638767591 0.1750278638767591 0.1750278638767591 0.1750278638767591 0.1359594406276258 0.1359594406276258 0.1359594406276258 0.1359594406276258 
0.09635444758029552 0.09635444758029552 0.09635444758029552 0.09635444758029552 0.05636918754852561 0.05636918754852561 0.05636918754852561 0.05636918754852561 0.01616146408613381 
0.01616146408613381 0.01616146408613381 0.01616146408613381 -0.02400813115193005 -0.02400813115193005 -0.02400813115193005 -0.02400813115193005 -0.06401809754647395 -0.06401809754647395 
-0.06401809754647395 -0.06401809754647395 -0.1037754137570886 -0.1037754137570886 -0.1037754137570886 -0.1037754137570886 -0.1431231758200809 -0.1431231758200809 -0.1431231758200809 
-0.1431231758200809 -0.1819060960948703 -0.1819060960948703 -0.1819060960948703 -0.1819060960948703 -0.219971116113364 -0.219971116113364 -0.219971116113364 -0.219971116113364 
-0.2571680106318018 -0.2571680106318018 -0.2571680106318018 -0.2571680106318018 -0.2933499805011645 -0.2933499805011645 -0.2933499805011645 -0.2933499805011645 -0.3283742320163467 
-0.3283742320163467 -0.3283742320163467 -0.3283742320163467 -0.362102540457677 -0.362102540457677 -0.362102540457677 -0.362102540457677 -0.3944017956007357 -0.3944017956007357 
-0.3944017956007357 -0.3944017956007357 -0.4251445270415993 -0.4251445270415993 -0.4251445270415993 -0.4251445270415993 -0.4542094072642886 -0.4542094072642886 -0.4542094072642886 
-0.4542094072642886 -0.4814817304650451 -0.4814817304650451 -0.4814817304650451 -0.4814817304650451 -0.5068538652437352 -0.5068538652437352 -0.5068538652437352 -0.5068538652437352 
-0.5302256793758133 -0.5302256793758133 -0.5302256793758133 -0.5302256793758133 -0.551504934988466 -0.551504934988466 -0.551504934988466 -0.551504934988466 -0.5706076525813577 
-0.5706076525813577 -0.5706076525813577 -0.5706076525813577 -0.5874584424553499 -0.5874584424553499 -0.5874584424553499 -0.5874584424553499 -0.6019908022412044 -0.6019908022412044 
-0.6019908022412044 -0.6019908022412044 -0.6141473793540492 -0.6141473793540492 -0.6141473793540492 -0.6141473793540492 -0.6238801973378323 -0.6238801973378323 -0.6238801973378323 
-0.6238801973378323 -0.6311508452064736 -0.6311508452064736 -0.6311508452064736 -0.6311508452064736 -0.6359306290344781 -0.6359306290344781 -0.6359306290344781 -0.6359306290344781 
-0.6382006851987523 -0.6382006851987523 -0.6382006851987523 -0.6382006851987523 -0.6379520548247062 -0.6379520548247062 -0.6379520548247062 -0.6379520548247062 -0.6351857191428373 
-0.6351857191428373 -0.6351857191428373 -0.6351857191428373 -0.6299125956162634 -0.6299125956162634 -0.6299125956162634 -0.6299125956162634 -0.6221534948544831 -0.6221534948544831 
-0.6221534948544831 -0.6221534948544831 -0.6119390384834075 -0.6119390384834075 -0.6119390384834075 -0.6119390384834075 -0.5993095382957914 -0.5993095382957914 -0.5993095382957914 
-0.5993095382957914 -0.5843148371590053 -0.5843148371590053 -0.5843148371590053 -0.5843148371590053 -0.5670141123080094 -0.5670141123080094 -0.5670141123080094 -0.5670141123080094 
-0.5474756417998409 -0.5474756417998409 -0.5474756417998409 -0.5474756417998409 -0.5257765350513177 -0.5257765350513177 -0.5257765350513177 -0.5257765350513177 -0.5020024285233973 
-0.5020024285233973 -0.5020024285233973 -0.5020024285233973 -0.4762471477531894 -0.4762471477531894 -0.4762471477531894 -0.4762471477531894 -0.448612337067425 -0.448612337067425 
-0.448612337067425 -0.448612337067425 -0.419207058438737 -0.419207058438737 -0.419207058438737 -0.419207058438737 -0.3881473610678788 -0.3881473610678788 -0.3881473610678788 
-0.3881473610678788 -0.3555558233905476 -0.3555558233905476 -0.3555558233905476 -0.3555558233905476 -0.3215610693162981 -0.3215610693162981 -0.3215610693162981 -0.3215610693162981 
-0.2862972606087362 -0.2862972606087362 -0.2862972606087362 -0.2862972606087362 -0.2499035674103278 -0.2499035674103278 -0.2499035674103278 -0.2499035674103278 -0.2125236190014304 
-0.2125236190014304 -0.2125236190014304 -0.2125236190014304 -0.1743049369611405 -0.1743049369611405 -0.1743049369611405 -0.1743049369611405 -0.1353983529670164 -0.1353983529670164 
-0.1353983529670164 -0.1353983529670164 -0.0959574135313549 -0.0959574135313549 -0.0959574135313549 -0.0959574135313549 -0.05613777402325705 -0.05613777402325705 -0.05613777402325705 
-0.05613777402325705 -0.01609658436799884 -0.01609658436799884 -0.01609658436799884 -0.01609658436799884 0.02400813115192996 0.02400813115192996 0.02400813115192996 0.02400813115192996 
0.06401809754647426 0.06401809754647426 0.06401809754647426 0.06401809754647426 0.1037754137570881 0.1037754137570881 0.1037754137570881 0.1037754137570881 0.1431231758200807 
0.1431231758200807 0.1431231758200807 0.1431231758200807 0.18190609609487 0.18190609609487 0.18190609609487 0.18190609609487 0.2199711161133635 0.2199711161133635 
0.2199711161133635 0.2199711161133635 0.2571680106318017 0.2571680106318017 0.2571680106318017 0.2571680106318017 0.2933499805011641 0.2933499805011641 0.2933499805011641 
0.2933499805011641 0.3283742320163465 0.3283742320163465 0.3283742320163465 0.3283742320163465 0.362102540457677 0.362102540457677 0.362102540457677 0.362102540457677 
0.3944017956007357 0.3944017956007357 0.3944017956007357 0.3944017956007357 0.4251445270415992 0.4251445270415992 0.4251445270415992 0.4251445270415992 0.4542094072642884 
0.4542094072642884 0.4542094072642884 0.4542094072642884 0.481481730465045 0.481481730465045 0.481481730465045 0.481481730465045 0.5068538652437358 0.5068538652437358 
0.5068538652437358 0.5068538652437358 0.530225679375814 0.530225679375814 0.530225679375814 0.530225679375814 0.5515049349884671 0.5515049349884671 0.5515049349884671 
0.5515049349884671 0.5706076525813581 0.5706076525813581 0.5706076525813581 0.5706076525813581 0.5874584424553504 0.5874584424553504 0.5874584424553504 0.5874584424553504 
0.6019908022412044 0.6019908022412044 0.6019908022412044 0.6019908022412044 0.6141473793540495 0.6141473793540495 0.6141473793540495 0.6141473793540495 0.6238801973378323 
0.6238801973378323 0.6238801973378323 0.6238801973378323 0.6311508452064731 0.6311508452064731 0.6311508452064731 0.6311508452064731 0.6359306290344776 0.6359306290344776 
0.6359306290344776 0.6359306290344776 0.6382006851987519 0.6382006851987519 0.6382006851987519 0.6382006851987519 0.6379520548247057 0.6379520548247057 0.6379520548247057 
0.6379520548247057 0.6351857191428369 0.6351857191428369 0.6351857191428369 0.6351857191428369 0.6299125956162632 0.6299125956162632 0.6299125956162632 0.6299125956162632 
0.6221534948544829 0.6221534948544829 0.6221534948544829 0.6221534948544829 0.6119390384834069 0.6119390384834069 0.6119390384834069 0.6119390384834069 0.5993095382957907 
0.5993095382957907 0.5993095382957907 0.5993095382957907 0.5843148371590048 0.5843148371590048 0.5843148371590048 0.5843148371590048 0.5670141123080095 0.5670141123080095 
0.5670141123080095 0.5670141123080095 0.5474756417998413 0.5474756417998413 0.5474756417998413 0.5474756417998413 0.5257765350513183 0.5257765350513183 0.5257765350513183 
0.5257765350513183 0.5020024285233979 0.5020024285233979 0.5020024285233979 0.5020024285233979 0.4762471477531894 0.4762471477531894 0.4762471477531894 0.4762471477531894 
0.4486123370674251 0.4486123370674251 0.4486123370674251 0.4486123370674251 0.4192070584387368 0.4192070584387368 0.4192070584387368 0.4192070584387368 0.3881473610678791 
0.3881473610678791 0.3881473610678791 0.3881473610678791 0.3555558233905469 0.3555558233905469 0.3555558233905469 0.3555558233905469 0.321561069316298 0.321561069316298 
0.321561069316298 0.321561069316298 0.2862972606087362 0.2862972606087362 0.2862972606087362 0.2862972606087362 0.2499035674103277 0.2499035674103277 0.2499035674103277 
0.2499035674103277 0.2125236190014315 0.2125236190014315 0.2125236190014315 0.2125236190014315 0.1743049369611413 0.1743049369611413 0.1743049369611413 0.1743049369611413 
0.1353983529670167 0.1353983529670167 0.1353983529670167 0.1353983529670167 0.09595741353135467 0.09595741353135467 0.09595741353135467 0.09595741353135467 0.05613777402325688 
0.05613777402325688 0.05613777402325688 0.05613777402325688 0.01609658436799871 0.01609658436799871 0.01609658436799871 0.01609658436799871 -0.02381147188693993 -0.02381147188693993 
-0.02381147188693993 -0.02381147188693993 -0.06349714955796178 -0.06349714955796178 -0.06349714955796178 -0.06349714955796178 -0.1029322329887666 -0.1029322329887666 -0.1029322329887666 
-0.1029322329887666 -0.1419610899212289 -0.1419610899212289 -0.1419610899212289 -0.1419610899212289 -0.1804296912876245 -0.1804296912876245 -0.1804296912876245 -0.1804296912876245 
-0.2181862190929933 -0.2181862190929933 -0.2181862190929933 -0.2181862190929933 -0.255081665571404 -0.255081665571404 -0.255081665571404 -0.255081665571404 -0.2909704212515322 
-0.2909704212515322 -0.2909704212515322 -0.2909704212515322 -0.3257108496107215 -0.3257108496107215 -0.3257108496107215 -0.3257108496107215 -0.3591658460496301 -0.3591658460496301 
-0.3591658460496301 -0.3591658460496301 -0.3912033789814475 -0.3912033789814475 -0.3912033789814475 -0.3912033789814475 -0.4216970109002486 -0.4216970109002486 -0.4216970109002486 
-0.4216970109002486 -0.4505263973720649 -0.4505263973720649 -0.4505263973720649 -0.4505263973720649 -0.4775777619793862 -0.4775777619793862 -0.4775777619793862 -0.4775777619793862 
-0.5027443453447 -0.5027443453447 -0.5027443453447 -0.5027443453447 -0.5259268264609822 -0.5259268264609822 -0.5259268264609822 -0.5259268264609822 -0.5470337146663349 
-0.5470337146663349 -0.5470337146663349 -0.5470337146663349 -0.5659817107158314 -0.5659817107158314 -0.5659817107158314 -0.5659817107158314 -0.5826960355255805 -0.5826960355255805 
-0.5826960355255805 -0.5826960355255805 -0.5971107252916067 -0.5971107252916067 -0.5971107252916067 -0.5971107252916067 -0.6091688918188485 -0.6091688918188485 -0.6091688918188485 
-0.6091688918188485 -0.6188229470328752 -0.6188229470328752 -0.6188229470328752 -0.6188229470328752 -0.6260347907882757 -0.6260347907882757 -0.6260347907882757 -0.6260347907882757 
-0.6307759612325251 -0.6307759612325251 -0.6307759612325251 -0.6307759612325251 -0.633027747131915 -0.633027747131915 -0.633027747131915 -0.633027747131915 -0.6327812617162435 
-0.6327812617162435 -0.6327812617162435 -0.6327812617162435 -0.6300374777508377 -0.6300374777508377 -0.6300374777508377 -0.6300374777508377 -0.6248072236974934 -0.6248072236974934 
-0.6248072236974934 -0.6248072236974934 -0.6171111409794836 -0.6171111409794836 -0.6171111409794836 -0.6171111409794836 -0.6069796025192907 -0.6069796025192907 -0.6069796025192907 
-0.6069796025192907 -0.594452592870557 -0.594452592870557 -0.594452592870557 -0.594452592870557 -0.5795795504173193 -0.5795795504173193 -0.5795795504173193 -0.5795795504173193 
-0.5624191722632947 -0.5624191722632947 -0.5624191722632947 -0.5624191722632947 -0.5430391825812257 -0.5430391825812257 -0.5430391825812257 -0.5430391825812257 -0.5215160653365124 
-0.5215160653365124 -0.5215160653365124 -0.5215160653365124 -0.4979347624399423 -0.4979347624399423 -0.4979347624399423 -0.4979347624399423 -0.4723883385207764 -0.4723883385207764 
-0.4723883385207764 -0.4723883385207764 -0.444977613643172 -0.444977613643172 -0.444977613643172 -0.444977613643172 -0.4158107654154523 -0.4158107654154523 -0.4158107654154523 
-0.4158107654154523 -0.3850029020625072 -0.3850029020625072 -0.3850029020625072 -0.3850029020625072 -0.352675608146216 -0.352675608146216 -0.352675608146216 -0.352675608146216 
-0.3189564647267309 -0.3189564647267309 -0.3189564647267309 -0.3189564647267309 -0.2839785458583176 -0.2839785458583176 -0.2839785458583176 -0.2839785458583176 -0.2478798934068582 
-0.2478798934068582 -0.2478798934068582 -0.2478798934068582 -0.210802972261673 -0.210802972261673 -0.210802972261673 -0.210802972261673 -0.1728941080916878 -0.1728941080916878 
-0.1728941080916878 -0.1728941080916878 -0.1343029098648697 -0.1343029098648697 -0.1343029098648697 -0.1343029098648697 -0.09518167940997777 -0.09518167940997777 -0.09518167940997777 
-0.09518167940997777 -0.05568481035082768 -0.05568481035082768 -0.05568481035082768 -0.05568481035082768 -0.01596817878519303 -0.01596817878519303 -0.01596817878519303 -0.01596817878519303 
0.02381147188693985 0.02381147188693985 0.02381147188693985 0.02381147188693985 0.06349714955796197 0.06349714955796197 0.06349714955796197 0.06349714955796197 0.1029322329887662 
0.1029322329887662 0.1029322329887662 0.1029322329887662 0.1419610899212289 0.1419610899212289 0.1419610899212289 0.1419610899212289 0.1804296912876248 0.1804296912876248 
0.1804296912876248 0.1804296912876248 0.218186219092994 0.218186219092994 0.218186219092994 0.218186219092994 0.2550816655714041 0.2550816655714041 0.2550816655714041 
0.2550816655714041 0.2909704212515325 0.2909704212515325 0.2909704212515325 0.2909704212515325 0.3257108496107213 0.3257108496107213 0.3257108496107213 0.3257108496107213 
0.3591658460496299 0.3591658460496299 0.3591658460496299 0.3591658460496299 0.3912033789814474 0.3912033789814474 0.3912033789814474 0.3912033789814474 0.4216970109002486 
0.4216970109002486 0.4216970109002486 0.4216970109002486 0.4505263973720646 0.4505263973720646 0.4505263973720646 0.4505263973720646 0.477577761979386 0.477577761979386 
0.477577761979386 0.477577761979386 0.5027443453447005 0.5027443453447005 0.5027443453447005 0.5027443453447005 0.5259268264609831 0.5259268264609831 0.5259268264609831 
0.5259268264609831 0.5470337146663358 0.5470337146663358 0.5470337146663358 0.5470337146663358 0.565981710715832 0.565981710715832 0.565981710715832 0.565981710715832 
0.5826960355255809 0.5826960355255809 0.5826960355255809 0.5826960355255809 0.597110725291607 0.597110725291607 0.597110725291607 0.597110725291607 0.6091688918188487 
0.6091688918188487 0.6091688918188487 0.6091688918188487 0.6188229470328753 0.6188229470328753 0.6188229470328753 0.6188229470328753 0.6260347907882756 0.6260347907882756 
0.6260347907882756 0.6260347907882756 0.630775961232525 0.630775961232525 0.630775961232525 0.630775961232525 0.633027747131915 0.633027747131915 0.633027747131915 
0.633027747131915 0.6327812617162434 0.6327812617162434 0.6327812617162434 0.6327812617162434 0.6300374777508375 0.6300374777508375 0.6300374777508375 0.6300374777508375 
0.6248072236974933 0.6248072236974933 0.6248072236974933 0.6248072236974933 0.6171111409794836 0.6171111409794836 0.6171111409794836 0.6171111409794836 0.6069796025192903 
0.6069796025192903 0.6069796025192903 0.6069796025192903 0.5944525928705564 0.5944525928705564 0.5944525928705564 0.5944525928705564 0.5795795504173188 0.5795795504173188 
0.5795795504173188 0.5795795504173188 0.5624191722632945 0.5624191722632945 0.5624191722632945 0.5624191722632945 0.5430391825812257 0.5430391825812257 0.5430391825812257 
0.5430391825812257 0.5215160653365121 0.5215160653365121 0.5215160653365121 0.5215160653365121 0.4979347624399421 0.4979347624399421 0.4979347624399421 0.4979347624399421 
0.4723883385207762 0.4723883385207762 0.4723883385207762 0.4723883385207762 0.444977613643172 0.444977613643172 0.444977613643172 0.444977613643172 0.4158107654154527 
0.4158107654154527 0.4158107654154527 0.4158107654154527 0.3850029020625073 0.3850029020625073 0.3850029020625073 0.3850029020625073 0.3526756081462158 0.3526756081462158 
0.3526756081462158 0.3526756081462158 0.3189564647267307 0.3189564647267307 0.3189564647267307 0.3189564647267307 0.2839785458583177 0.2839785458583177 0.2839785458583177 
0.2839785458583177 0.2478798934068581 0.2478798934068581 0.2478798934068581 0.2478798934068581 0.2108029722616727 0.2108029722616727 0.2108029722616727 0.2108029722616727 
0.1728941080916874 0.1728941080916874 0.1728941080916874 0.1728941080916874 0.1343029098648696 0.1343029098648696 0.1343029098648696 0.1343029098648696 0.09518167940997727 
0.09518167940997727 0.09518167940997727 0.09518167940997727 0.0556848103508276 0.0556848103508276 0.0556848103508276 0.0556848103508276 0.01596817878519294 0.01596817878519294 
0.01596817878519294 0.01596817878519294 -0.02352083962083854 -0.02352083962083854 -0.02352083962083854 -0.02352083962083854 -0.06272560732923241 -0.06272560732923241 -0.06272560732923241 
-0.06272560732923241 -0.1016828257221019 -0.1016828257221019 -0.1016828257221019 -0.1016828257221019 -0.1402387484563105 -0.1402387484563105 -0.1402387484563105 -0.1402387484563105 
-0.1782412129193515 -0.1782412129193515 -0.1782412129193515 -0.1782412129193515 -0.2155402407456645 -0.2155402407456645 -0.2155402407456645 -0.2155402407456645 -0.2519886297127237 
-0.2519886297127237 -0.2519886297127237 -0.2519886297127237 -0.2874425346809611 -0.2874425346809611 -0.2874425346809611 -0.2874425346809611 -0.3217620352848156 -0.3217620352848156 
-0.3217620352848156 -0.3217620352848156 -0.354811688134492 -0.354811688134492 -0.354811688134492 -0.354811688134492 -0.3864610613491429 -0.3864610613491429 -0.3864610613491429 
-0.3864610613491429 -0.4165852493119132 -0.4165852493119132 -0.4165852493119132 -0.4165852493119132 -0.4450653656153462 -0.4450653656153462 -0.4450653656153462 -0.4450653656153462 
-0.4717890122517199 -0.4717890122517199 -0.4717890122517199 -0.4717890122517199 -0.4966507231966329 -0.4966507231966329 -0.4966507231966329 -0.4966507231966329 -0.5195523806352216 
-0.5195523806352216 -0.5195523806352216 -0.5195523806352216 -0.5404036021883477 -0.5404036021883477 -0.5404036021883477 -0.5404036021883477 -0.5591220976105582 -0.5591220976105582 
-0.5591220976105582 -0.5591220976105582 -0.5756339935520882 -0.5756339935520882 -0.5756339935520882 -0.5756339935520882 -0.5898741251032249 -0.5898741251032249 -0.5898741251032249 
-0.5898741251032249 -0.6017862929704328 -0.6017862929704328 -0.6017862929704328 -0.6017862929704328 -0.6113234852692915 -0.6113234852692915 -0.6113234852692915 -0.6113234852692915 
-0.6184480630589267 -0.6184480630589267 -0.6184480630589267 -0.6184480630589267 -0.6231319088857125 -0.6231319088857125 -0.6231319088857125 -0.6231319088857125 -0.6253565377500162 
-0.6253565377500162 -0.6253565377500162 -0.6253565377500162 -0.6251131700580467 -0.6251131700580467 -0.6251131700580467 -0.6251131700580467 -0.6224027662709 -0.6224027662709 
-0.6224027662709 -0.6224027662709 -0.617236023114058 -0.617236023114058 -0.617236023114058 -0.617236023114058 -0.609633331362301 -0.609633331362301 -0.609633331362301 
-0.609633331362301 -0.5996246953666333 -0.5996246953666333 -0.5996246953666333 -0.5996246953666333 -0.5872496146408193 -0.5872496146408193 -0.5872496146408193 -0.5872496146408193 
-0.5725569279748464 -0.5725569279748464 -0.5725569279748464 -0.5725569279748464 -0.5556046206905355 -0.5556046206905355 -0.5556046206905355 -0.5556046206905355 -0.5364595957999657 
-0.5364595957999657 -0.5364595957999657 -0.5364595957999657 -0.5151974099698501 -0.5151974099698501 -0.5151974099698501 -0.5151974099698501 -0.491901975333891 -0.491901975333891 
-0.491901975333891 -0.491901975333891 -0.466665228329925 -0.466665228329925 -0.466665228329925 -0.466665228329925 -0.4395867668688039 -0.4395867668688039 -0.4395867668688039 
-0.4395867668688039 -0.410773457266942 -0.410773457266942 -0.410773457266942 -0.410773457266942 -0.3803390124937894 -0.3803390124937894 -0.3803390124937894 -0.3803390124937894 
-0.3484035433986903 -0.3484035433986903 -0.3484035433986903 -0.3484035433986903 -0.3150930846882353 -0.3150930846882353 -0.3150930846882353 -0.3150930846882353 -0.2805390975248534 
-0.2805390975248534 -0.2805390975248534 -0.2805390975248534 -0.244877950709663 -0.244877950709663 -0.244877950709663 -0.244877950709663 -0.2082503824971155 -0.2082503824971155 
-0.2082503824971155 -0.2082503824971155 -0.1708009451654009 -0.1708009451654009 -0.1708009451654009 -0.1708009451654009 -0.1326774345346489 -0.1326774345346489 -0.1326774345346489 
-0.1326774345346489 -0.09403030668434249 -0.09403030668434249 -0.09403030668434249 -0.09403030668434249 -0.05501208417191376 -0.05501208417191376 -0.05501208417191376 -0.05501208417191376 
-0.01577675409588938 -0.01577675409588938 -0.01577675409588938 -0.01577675409588938 0.02352083962083849 0.02352083962083849 0.02352083962083849 0.02352083962083849 0.06272560732923262 
0.06272560732923262 0.06272560732923262 0.06272560732923262 0.1016828257221019 0.1016828257221019 0.1016828257221019 0.1016828257221019 0.1402387484563106 0.1402387484563106 
0.1402387484563106 0.1402387484563106 0.1782412129193518 0.1782412129193518 0.1782412129193518 0.1782412129193518 0.2155402407456652 0.2155402407456652 0.2155402407456652 
0.2155402407456652 0.2519886297127237 0.2519886297127237 0.2519886297127237 0.2519886297127237 0.287442534680962 0.287442534680962 0.287442534680962 0.287442534680962 
0.3217620352848155 0.3217620352848155 0.3217620352848155 0.3217620352848155 0.3548116881344919 0.3548116881344919 0.3548116881344919 0.3548116881344919 0.3864610613491427 
0.3864610613491427 0.3864610613491427 0.3864610613491427 0.4165852493119129 0.4165852493119129 0.4165852493119129 0.4165852493119129 0.4450653656153453 0.4450653656153453 
0.4450653656153453 0.4450653656153453 0.4717890122517199 0.4717890122517199 0.4717890122517199 0.4717890122517199 0.4966507231966331 0.4966507231966331 0.4966507231966331 
0.4966507231966331 0.5195523806352216 0.5195523806352216 0.5195523806352216 0.5195523806352216 0.5404036021883478 0.5404036021883478 0.5404036021883478 0.5404036021883478 
0.5591220976105584 0.5591220976105584 0.5591220976105584 0.5591220976105584 0.5756339935520887 0.5756339935520887 0.5756339935520887 0.5756339935520887 0.5898741251032253 
0.5898741251032253 0.5898741251032253 0.5898741251032253 0.601786292970433 0.601786292970433 0.601786292970433 0.601786292970433 0.6113234852692919 0.6113234852692919 
0.6113234852692919 0.6113234852692919 0.618448063058927 0.618448063058927 0.618448063058927 0.618448063058927 0.6231319088857128 0.6231319088857128 0.6231319088857128 
0.6231319088857128 0.6253565377500165 0.6253565377500165 0.6253565377500165 0.6253565377500165 0.6251131700580466 0.6251131700580466 0.6251131700580466 0.6251131700580466 
0.6224027662709 0.6224027662709 0.6224027662709 0.6224027662709 0.6172360231140581 0.6172360231140581 0.6172360231140581 0.6172360231140581 0.6096333313623008 