Title = RSC/Post/Linear_Advection_2D/Sine_Wave_2D/Quad100/
FileType = Solution
Variables = q
Zone T = RSC/Post/Linear_Advection_2D/Sine_Wave_2D/Quad100/
ZoneType = FETriangle
Nodes = 40000
Elements = 20000
DataPacking = Block
StrandID = 18
SolutionTime = 1.7
0.47037375534232 0.47037375534232 0.47037375534232 0.47037375534232 0.4585758143995593 0.4585758143995593 0.4585758143995593 0.4585758143995593 0.4449680842207248 0.4449680842207248 
0.4449680842207248 0.4449680842207248 0.4296042683000518 0.4296042683000518 0.4296042683000518 0.4296042683000518 0.4125450005999202 0.4125450005999202 0.4125450005999202 
0.4125450005999202 0.3938576062563031 0.3938576062563031 0.3938576062563031 0.3938576062563031 0.3736158358772165 0.3736158358772165 0.3736158358772165 0.3736158358772165 
0.3518995744827618 0.3518995744827618 0.3518995744827618 0.3518995744827618 0.3287945262354466 0.3287945262354466 0.3287945262354466 0.3287945262354466 0.304391876205011 
0.304391876205011 0.304391876205011 0.304391876205011 0.2787879305026144 0.2787879305026144 0.2787879305026144 0.2787879305026144 0.2520837362046143 0.2520837362046143 
0.2520837362046143 0.2520837362046143 0.2243846825659189 0.2243846825659189 0.2243846825659189 0.2243846825659189 0.1958000850967461 0.1958000850967461 0.1958000850967461 
0.1958000850967461 0.1664427541442467 0.1664427541442467 0.1664427541442467 0.1664427541442467 0.1364285496816012 0.1364285496816012 0.1364285496816012 0.1364285496816012 
0.1058759240616382 0.1058759240616382 0.1058759240616382 0.1058759240616382 0.07490545453951228 0.07490545453951228 0.07490545453951228 0.07490545453951228 0.04363936740936594 
0.04363936740936594 0.04363936740936594 0.04363936740936594 0.01220105563298511 0.01220105563298511 0.01220105563298511 0.01220105563298511 -0.01928540813584659 -0.01928540813584659 
-0.01928540813584659 -0.01928540813584659 -0.05069576120943112 -0.05069576120943112 -0.05069576120943112 -0.05069576120943112 -0.08190604127421224 -0.08190604127421224 -0.08190604127421224 
-0.08190604127421224 -0.1127930756133948 -0.1127930756133948 -0.1127930756133948 -0.1127930756133948 -0.1432349672133861 -0.1432349672133861 -0.1432349672133861 -0.1432349672133861 
-0.1731115758356182 -0.1731115758356182 -0.1731115758356182 -0.1731115758356182 -0.2023049921551832 -0.2023049921551832 -0.2023049921551832 -0.2023049921551832 -0.2307000030950709 
-0.2307000030950709 -0.2307000030950709 -0.2307000030950709 -0.2581845465195481 -0.2581845465195481 -0.2581845465195481 -0.2581845465195481 -0.2846501534922126 -0.2846501534922126 
-0.2846501534922126 -0.2846501534922126 -0.3099923763533284 -0.3099923763533284 -0.3099923763533284 -0.3099923763533284 -0.3341112009270226 -0.3341112009270226 -0.3341112009270226 
-0.3341112009270226 -0.3569114412315459 -0.3569114412315459 -0.3569114412315459 -0.3569114412315459 -0.3783031151348558 -0.3783031151348558 -0.3783031151348558 -0.3783031151348558 
-0.398201799472982 -0.398201799472982 -0.398201799472982 -0.398201799472982 -0.416528963229686 -0.416528963229686 -0.416528963229686 -0.416528963229686 -0.4332122774625047 
-0.4332122774625047 -0.4332122774625047 -0.4332122774625047 -0.4481859007520424 -0.4481859007520424 -0.4481859007520424 -0.4481859007520424 -0.4613907390479731 -0.4613907390479731 
-0.4613907390479731 -0.4613907390479731 -0.4727746788862595 -0.4727746788862595 -0.4727746788862595 -0.4727746788862595 -0.4822927930571871 -0.4822927930571871 -0.4822927930571871 
-0.4822927930571871 -0.4899075179125363 -0.4899075179125363 -0.4899075179125363 -0.4899075179125363 -0.4955888016121416 -0.4955888016121416 -0.4955888016121416 -0.4955888016121416 
-0.4993142227247683 -0.4993142227247683 -0.4993142227247683 -0.4993142227247683 -0.5010690787152694 -0.5010690787152694 -0.5010690787152694 -0.5010690787152694 -0.5008464439687692 
-0.5008464439687692 -0.5008464439687692 -0.5008464439687692 -0.4986471971228995 -0.4986471971228995 -0.4986471971228995 -0.4986471971228995 -0.4944800176002206 -0.4944800176002206 
-0.4944800176002206 -0.4944800176002206 -0.4883613513545053 -0.4883613513545053 -0.4883613513545053 -0.4883613513545053 -0.4803153459660724 -0.4803153459660724 -0.4803153459660724 
-0.4803153459660724 -0.47037375534232 -0.47037375534232 -0.47037375534232 -0.47037375534232 -0.4585758143995594 -0.4585758143995594 -0.4585758143995594 -0.4585758143995594 
-0.4449680842207249 -0.4449680842207249 -0.4449680842207249 -0.4449680842207249 -0.4296042683000519 -0.4296042683000519 -0.4296042683000519 -0.4296042683000519 -0.4125450005999195 
-0.4125450005999195 -0.4125450005999195 -0.4125450005999195 -0.3938576062563023 -0.3938576062563023 -0.3938576062563023 -0.3938576062563023 -0.3736158358772158 -0.3736158358772158 
-0.3736158358772158 -0.3736158358772158 -0.3518995744827609 -0.3518995744827609 -0.3518995744827609 -0.3518995744827609 -0.3287945262354471 -0.3287945262354471 -0.3287945262354471 
-0.3287945262354471 -0.3043918762050112 -0.3043918762050112 -0.3043918762050112 -0.3043918762050112 -0.2787879305026145 -0.2787879305026145 -0.2787879305026145 -0.2787879305026145 
-0.2520837362046143 -0.2520837362046143 -0.2520837362046143 -0.2520837362046143 -0.2243846825659189 -0.2243846825659189 -0.2243846825659189 -0.2243846825659189 -0.1958000850967462 
-0.1958000850967462 -0.1958000850967462 -0.1958000850967462 -0.1664427541442474 -0.1664427541442474 -0.1664427541442474 -0.1664427541442474 -0.1364285496816018 -0.1364285496816018 
-0.1364285496816018 -0.1364285496816018 -0.1058759240616382 -0.1058759240616382 -0.1058759240616382 -0.1058759240616382 -0.0749054545395124 -0.0749054545395124 -0.0749054545395124 
-0.0749054545395124 -0.0436393674093659 -0.0436393674093659 -0.0436393674093659 -0.0436393674093659 -0.01220105563298547 -0.01220105563298547 -0.01220105563298547 -0.01220105563298547 
0.01928540813584659 0.01928540813584659 0.01928540813584659 0.01928540813584659 0.05069576120943101 0.05069576120943101 0.05069576120943101 0.05069576120943101 0.08190604127421236 
0.08190604127421236 0.08190604127421236 0.08190604127421236 0.1127930756133949 0.1127930756133949 0.1127930756133949 0.1127930756133949 0.1432349672133862 0.1432349672133862 
0.1432349672133862 0.1432349672133862 0.1731115758356181 0.1731115758356181 0.1731115758356181 0.1731115758356181 0.2023049921551831 0.2023049921551831 0.2023049921551831 
0.2023049921551831 0.2307000030950709 0.2307000030950709 0.2307000030950709 0.2307000030950709 0.2581845465195483 0.2581845465195483 0.2581845465195483 0.2581845465195483 
0.2846501534922125 0.2846501534922125 0.2846501534922125 0.2846501534922125 0.309992376353328 0.309992376353328 0.309992376353328 0.309992376353328 0.3341112009270225 
0.3341112009270225 0.3341112009270225 0.3341112009270225 0.3569114412315465 0.3569114412315465 0.3569114412315465 0.3569114412315465 0.3783031151348563 0.3783031151348563 
0.3783031151348563 0.3783031151348563 0.3982017994729823 0.3982017994729823 0.3982017994729823 0.3982017994729823 0.416528963229686 0.416528963229686 0.416528963229686 
0.416528963229686 0.4332122774625048 0.4332122774625048 0.4332122774625048 0.4332122774625048 0.4481859007520422 0.4481859007520422 0.4481859007520422 0.4481859007520422 
0.4613907390479729 0.4613907390479729 0.4613907390479729 0.4613907390479729 0.4727746788862592 0.4727746788862592 0.4727746788862592 0.4727746788862592 0.4822927930571871 
0.4822927930571871 0.4822927930571871 0.4822927930571871 0.4899075179125363 0.4899075179125363 0.4899075179125363 0.4899075179125363 0.4955888016121403 0.4955888016121403 
0.4955888016121403 0.4955888016121403 0.4993142227247677 0.4993142227247677 0.4993142227247677 0.4993142227247677 0.5010690787152698 0.5010690787152698 0.5010690787152698 
0.5010690787152698 0.5008464439687693 0.5008464439687693 0.5008464439687693 0.5008464439687693 0.4986471971228997 0.4986471971228997 0.4986471971228997 0.4986471971228997 
0.4944800176002207 0.4944800176002207 0.4944800176002207 0.4944800176002207 0.4883613513545052 0.4883613513545052 0.4883613513545052 0.4883613513545052 0.4803153459660723 
0.4803153459660723 0.4803153459660723 0.4803153459660723 0.4893669448367195 0.4893669448367195 0.4893669448367195 0.4893669448367195 0.4770927927953273 0.4770927927953273 
0.4770927927953273 0.4770927927953273 0.4629357734637359 0.4629357734637359 0.4629357734637359 0.4629357734637359 0.4469517581295203 0.4469517581295203 0.4469517581295203 
0.4469517581295203 0.4292038283988029 0.4292038283988029 0.4292038283988029 0.4292038283988029 0.4097620272419727 0.4097620272419727 0.4097620272419727 0.4097620272419727 
0.3887030825660816 0.3887030825660816 0.3887030825660816 0.3887030825660816 0.3661101044048487 0.3661101044048487 0.3661101044048487 0.3661101044048487 0.3420722569213266 
0.3420722569213266 0.3420722569213266 0.3420722569213266 0.3166844065176846 0.3166844065176846 0.3166844065176846 0.3166844065176846 0.2900467474408607 0.2900467474408607 
0.2900467474408607 0.2900467474408607 0.2622644063616421 0.2622644063616421 0.2622644063616421 0.2622644063616421 0.233447027487724 0.233447027487724 0.233447027487724 
0.233447027487724 0.2037083398481142 0.2037083398481142 0.2037083398481142 0.2037083398481142 0.1731657084566117 0.1731657084566117 0.1731657084566117 0.1731657084566117 
0.1419396711257178 0.1419396711257178 0.1419396711257178 0.1419396711257178 0.1101534627589584 0.1101534627589584 0.1101534627589584 0.1101534627589584 0.07793252899901942 
0.07793252899901942 0.07793252899901942 0.07793252899901942 0.04540403115110715 0.04540403115110715 0.04540403115110715 0.04540403115110715 0.01269634433536977 0.01269634433536977 
0.01269634433536977 0.01269634433536977 -0.02006144915105085 -0.02006144915105085 -0.02006144915105085 -0.02006144915105085 -0.05274006926287667 -0.05274006926287667 -0.05274006926287667 
-0.05274006926287667 -0.08521054841596762 -0.08521054841596762 -0.08521054841596762 -0.08521054841596762 -0.1173447404634573 -0.1173447404634573 -0.1173447404634573 -0.1173447404634573 
-0.1490158264300503 -0.1490158264300503 -0.1490158264300503 -0.1490158264300503 -0.1800988150085793 -0.1800988150085793 -0.1800988150085793 -0.1800988150085793 -0.2104710358435911 
-0.2104710358435911 -0.2104710358435911 -0.2104710358435911 -0.2400126236551984 -0.2400126236551984 -0.2400126236551984 -0.2400126236551984 -0.2686069912925761 -0.2686069912925761 
-0.2686069912925761 -0.2686069912925761 -0.2961412898501835 -0.2961412898501835 -0.2961412898501835 -0.2961412898501835 -0.3225068540308386 -0.3225068540308386 -0.3225068540308386 
-0.3225068540308386 -0.3475996309980003 -0.3475996309980003 -0.3475996309980003 -0.3475996309980003 -0.3713205910247784 -0.3713205910247784 -0.3713205910247784 -0.3713205910247784 
-0.3935761183190234 -0.3935761183190234 -0.3935761183190234 -0.3935761183190234 -0.414278380482088 -0.414278380482088 -0.414278380482088 -0.414278380482088 -0.4333456751431786 
-0.4333456751431786 -0.4333456751431786 -0.4333456751431786 -0.4507027524012861 -0.4507027524012861 -0.4507027524012861 -0.4507027524012861 -0.4662811118021673 -0.4662811118021673 
-0.4662811118021673 -0.4662811118021673 -0.4800192726783424 -0.4800192726783424 -0.4800192726783424 -0.4800192726783424 -0.4918630167852014 -0.4918630167852014 -0.4918630167852014 
-0.4918630167852014 -0.5017656022756467 -0.5017656022756467 -0.5017656022756467 -0.5017656022756467 -0.5096879481688086 -0.5096879481688086 -0.5096879481688086 -0.5096879481688086 
-0.5155987885848229 -0.5155987885848229 -0.5155987885848229 -0.5155987885848229 -0.5194747961369728 -0.5194747961369728 -0.5194747961369728 -0.5194747961369728 -0.5213006739942293 
-0.5213006739942293 -0.5213006739942293 -0.5213006739942293 -0.5210692162508542 -0.5210692162508542 -0.5210692162508542 -0.5210692162508542 -0.5187813363648179 -0.5187813363648179 
-0.5187813363648179 -0.5187813363648179 -0.514446063552798 -0.514446063552798 -0.514446063552798 -0.514446063552798 -0.5080805071559853 -0.5080805071559853 -0.5080805071559853 
-0.5080805071559853 -0.4997097891173322 -0.4997097891173322 -0.4997097891173322 -0.4997097891173322 -0.4893669448367196 -0.4893669448367196 -0.4893669448367196 -0.4893669448367196 
-0.4770927927953272 -0.4770927927953272 -0.4770927927953272 -0.4770927927953272 -0.4629357734637362 -0.4629357734637362 -0.4629357734637362 -0.4629357734637362 -0.4469517581295205 
-0.4469517581295205 -0.4469517581295205 -0.4469517581295205 -0.4292038283988032 -0.4292038283988032 -0.4292038283988032 -0.4292038283988032 -0.4097620272419729 -0.4097620272419729 
-0.4097620272419729 -0.4097620272419729 -0.3887030825660814 -0.3887030825660814 -0.3887030825660814 -0.3887030825660814 -0.3661101044048483 -0.3661101044048483 -0.3661101044048483 
-0.3661101044048483 -0.3420722569213267 -0.3420722569213267 -0.3420722569213267 -0.3420722569213267 -0.3166844065176849 -0.3166844065176849 -0.3166844065176849 -0.3166844065176849 
-0.2900467474408608 -0.2900467474408608 -0.2900467474408608 -0.2900467474408608 -0.2622644063616422 -0.2622644063616422 -0.2622644063616422 -0.2622644063616422 -0.2334470274877243 
-0.2334470274877243 -0.2334470274877243 -0.2334470274877243 -0.2037083398481145 -0.2037083398481145 -0.2037083398481145 -0.2037083398481145 -0.1731657084566122 -0.1731657084566122 
-0.1731657084566122 -0.1731657084566122 -0.1419396711257184 -0.1419396711257184 -0.1419396711257184 -0.1419396711257184 -0.1101534627589579 -0.1101534627589579 -0.1101534627589579 
-0.1101534627589579 -0.07793252899901926 -0.07793252899901926 -0.07793252899901926 -0.07793252899901926 -0.04540403115110646 -0.04540403115110646 -0.04540403115110646 -0.04540403115110646 
-0.01269634433536991 -0.01269634433536991 -0.01269634433536991 -0.01269634433536991 0.02006144915105156 0.02006144915105156 0.02006144915105156 0.02006144915105156 0.05274006926287662 
0.05274006926287662 0.05274006926287662 0.05274006926287662 0.08521054841596776 0.08521054841596776 0.08521054841596776 0.08521054841596776 0.1173447404634567 0.1173447404634567 
0.1173447404634567 0.1173447404634567 0.1490158264300498 0.1490158264300498 0.1490158264300498 0.1490158264300498 0.1800988150085787 0.1800988150085787 0.1800988150085787 
0.1800988150085787 0.210471035843591 0.210471035843591 0.210471035843591 0.210471035843591 0.2400126236551985 0.2400126236551985 0.2400126236551985 0.2400126236551985 
0.2686069912925763 0.2686069912925763 0.2686069912925763 0.2686069912925763 0.2961412898501838 0.2961412898501838 0.2961412898501838 0.2961412898501838 0.3225068540308385 
0.3225068540308385 0.3225068540308385 0.3225068540308385 0.3475996309980001 0.3475996309980001 0.3475996309980001 0.3475996309980001 0.3713205910247782 0.3713205910247782 
0.3713205910247782 0.3713205910247782 0.393576118319023 0.393576118319023 0.393576118319023 0.393576118319023 0.4142783804820876 0.4142783804820876 0.4142783804820876 
0.4142783804820876 0.4333456751431783 0.4333456751431783 0.4333456751431783 0.4333456751431783 0.4507027524012862 0.4507027524012862 0.4507027524012862 0.4507027524012862 
0.4662811118021674 0.4662811118021674 0.4662811118021674 0.4662811118021674 0.4800192726783423 0.4800192726783423 0.4800192726783423 0.4800192726783423 0.4918630167852012 
0.4918630167852012 0.4918630167852012 0.4918630167852012 0.5017656022756467 0.5017656022756467 0.5017656022756467 0.5017656022756467 0.5096879481688086 0.5096879481688086 
0.5096879481688086 0.5096879481688086 0.5155987885848226 0.5155987885848226 0.5155987885848226 0.5155987885848226 0.5194747961369721 0.5194747961369721 0.5194747961369721 
0.5194747961369721 0.5213006739942291 0.5213006739942291 0.5213006739942291 0.5213006739942291 0.5210692162508543 0.5210692162508543 0.5210692162508543 0.5210692162508543 
0.5187813363648182 0.5187813363648182 0.5187813363648182 0.5187813363648182 0.5144460635527981 0.5144460635527981 0.5144460635527981 0.5144460635527981 0.5080805071559852 
0.5080805071559852 0.5080805071559852 0.5080805071559852 0.4997097891173319 0.4997097891173319 0.4997097891173319 0.4997097891173319 0.5064288265703393 0.5064288265703393 
0.5064288265703393 0.5064288265703393 0.4937269039008961 0.4937269039008961 0.4937269039008961 0.4937269039008961 0.4790764667041228 0.4790764667041228 0.4790764667041228 
0.4790764667041228 0.4625353335624867 0.4625353335624867 0.4625353335624867 0.4625353335624867 0.4441687847715732 0.4441687847715732 0.4441687847715732 0.4441687847715732 
0.4240493047085819 0.4240493047085819 0.4240493047085819 0.4240493047085819 0.4022562957696051 0.4022562957696051 0.4022562957696051 0.4022562957696051 0.3788757650046464 
0.3788757650046464 0.3788757650046464 0.3788757650046464 0.3539999846870865 0.3539999846870865 0.3539999846870865 0.3539999846870865 0.3277271281571762 0.3277271281571762 
0.3277271281571762 0.3277271281571762 0.3001608823767121 0.3001608823767121 0.3001608823767121 0.3001608823767121 0.2714100387239704 0.2714100387239704 0.2714100387239704 
0.2714100387239704 0.2415880636438372 0.2415880636438372 0.2415880636438372 0.2415880636438372 0.2108126508475894 0.2108126508475894 0.2108126508475894 0.2108126508475894 
0.1792052568295852 0.1792052568295852 0.1792052568295852 0.1792052568295852 0.1468906215339686 0.1468906215339686 0.1468906215339686 0.1468906215339686 0.1139962760630992 
0.1139962760630992 0.1139962760630992 0.1139962760630992 0.0806520393705534 0.0806520393705534 0.0806520393705534 0.0806520393705534 0.04698950592502375 0.04698950592502375 
0.04698950592502375 0.04698950592502375 0.01314152636707082 0.01314152636707082 0.01314152636707082 0.01314152636707082 -0.02075831679166013 -0.02075831679166013 -0.02075831679166013 
-0.02075831679166013 -0.05457623635758731 -0.05457623635758731 -0.05457623635758731 -0.05457623635758731 -0.08817876845212176 -0.08817876845212176 -0.08817876845212176 -0.08817876845212176 
-0.1214332992326229 -0.1214332992326229 -0.1214332992326229 -0.1214332992326229 -0.1542085882586504 -0.1542085882586504 -0.1542085882586504 -0.1542085882586504 -0.1863752864380236 
-0.1863752864380236 -0.1863752864380236 -0.1863752864380236 -0.2178064465085947 -0.2178064465085947 -0.2178064465085947 -0.2178064465085947 -0.2483780240410969 -0.2483780240410969 
-0.2483780240410969 -0.2483780240410969 -0.2779693669858342 -0.2779693669858342 -0.2779693669858342 -0.2779693669858342 -0.3064636918312021 -0.3064636918312021 -0.3064636918312021 
-0.3064636918312021 -0.3337485444948556 -0.3337485444948556 -0.3337485444948556 -0.3337485444948556 -0.3597162441285947 -0.3597162441285947 -0.3597162441285947 -0.3597162441285947 
-0.3842643080854775 -0.3842643080854775 -0.3842643080854775 -0.3842643080854775 -0.40729585637201 -0.40729585637201 -0.40729585637201 -0.40729585637201 -0.4287199939892195 
-0.4287199939892195 -0.4287199939892195 -0.4287199939892195 -0.4484521696536879 -0.4484521696536879 -0.4484521696536879 -0.4484521696536879 -0.466414509482841 -0.466414509482841 
-0.466414509482841 -0.466414509482841 -0.482536124327586 -0.482536124327586 -0.482536124327586 -0.482536124327586 -0.4967533895393956 -0.4967533895393956 -0.4967533895393956 
-0.4967533895393956 -0.5090101960677296 -0.5090101960677296 -0.5090101960677296 -0.5090101960677296 -0.5192581718968228 -0.5192581718968228 -0.5192581718968228 -0.5192581718968228 
-0.5274568729479326 -0.5274568729479326 -0.5274568729479326 -0.5274568729479326 -0.533573942693641 -0.533573942693641 -0.533573942693641 -0.533573942693641 -0.5375852398542845 
-0.5375852398542845 -0.5375852398542845 -0.5375852398542845 -0.5394749336725573 -0.5394749336725573 -0.5394749336725573 -0.5394749336725573 -0.5392355663902777 -0.5392355663902777 
-0.5392355663902777 -0.5392355663902777 -0.5368680826807524 -0.5368680826807524 -0.5368680826807524 -0.5368680826807524 -0.5323818259205825 -0.5323818259205825 -0.5323818259205825 
-0.5323818259205825 -0.5257945013156247 -0.5257945013156247 -0.5257945013156247 -0.5257945013156247 -0.5171321060266324 -0.5171321060266324 -0.5171321060266324 -0.5171321060266324 
-0.5064288265703394 -0.5064288265703394 -0.5064288265703394 -0.5064288265703394 -0.4937269039008962 -0.4937269039008962 -0.4937269039008962 -0.4937269039008962 -0.4790764667041232 
-0.4790764667041232 -0.4790764667041232 -0.4790764667041232 -0.4625353335624869 -0.4625353335624869 -0.4625353335624869 -0.4625353335624869 -0.4441687847715732 -0.4441687847715732 
-0.4441687847715732 -0.4441687847715732 -0.4240493047085815 -0.4240493047085815 -0.4240493047085815 -0.4240493047085815 -0.402256295769605 -0.402256295769605 -0.402256295769605 
-0.402256295769605 -0.3788757650046462 -0.3788757650046462 -0.3788757650046462 -0.3788757650046462 -0.3539999846870866 -0.3539999846870866 -0.3539999846870866 -0.3539999846870866 
-0.3277271281571763 -0.3277271281571763 -0.3277271281571763 -0.3277271281571763 -0.3001608823767123 -0.3001608823767123 -0.3001608823767123 -0.3001608823767123 -0.2714100387239705 
-0.2714100387239705 -0.2714100387239705 -0.2714100387239705 -0.2415880636438376 -0.2415880636438376 -0.2415880636438376 -0.2415880636438376 -0.2108126508475896 -0.2108126508475896 
-0.2108126508475896 -0.2108126508475896 -0.179205256829585 -0.179205256829585 -0.179205256829585 -0.179205256829585 -0.1468906215339684 -0.1468906215339684 -0.1468906215339684 
-0.1468906215339684 -0.113996276063099 -0.113996276063099 -0.113996276063099 -0.113996276063099 -0.0806520393705534 -0.0806520393705534 -0.0806520393705534 -0.0806520393705534 
-0.04698950592502395 -0.04698950592502395 -0.04698950592502395 -0.04698950592502395 -0.01314152636707124 -0.01314152636707124 -0.01314152636707124 -0.01314152636707124 0.02075831679166015 
0.02075831679166015 0.02075831679166015 0.02075831679166015 0.05457623635758746 0.05457623635758746 0.05457623635758746 0.05457623635758746 0.0881787684521218 0.0881787684521218 
0.0881787684521218 0.0881787684521218 0.1214332992326228 0.1214332992326228 0.1214332992326228 0.1214332992326228 0.1542085882586504 0.1542085882586504 0.1542085882586504 
0.1542085882586504 0.1863752864380235 0.1863752864380235 0.1863752864380235 0.1863752864380235 0.2178064465085947 0.2178064465085947 0.2178064465085947 0.2178064465085947 
0.2483780240410968 0.2483780240410968 0.2483780240410968 0.2483780240410968 0.2779693669858339 0.2779693669858339 0.2779693669858339 0.2779693669858339 0.3064636918312023 
0.3064636918312023 0.3064636918312023 0.3064636918312023 0.3337485444948558 0.3337485444948558 0.3337485444948558 0.3337485444948558 0.3597162441285944 0.3597162441285944 
0.3597162441285944 0.3597162441285944 0.3842643080854769 0.3842643080854769 0.3842643080854769 0.3842643080854769 0.4072958563720095 0.4072958563720095 0.4072958563720095 
0.4072958563720095 0.4287199939892195 0.4287199939892195 0.4287199939892195 0.4287199939892195 0.4484521696536879 0.4484521696536879 0.4484521696536879 0.4484521696536879 
0.4664145094828412 0.4664145094828412 0.4664145094828412 0.4664145094828412 0.4825361243275861 0.4825361243275861 0.4825361243275861 0.4825361243275861 0.4967533895393956 
0.4967533895393956 0.4967533895393956 0.4967533895393956 0.5090101960677296 0.5090101960677296 0.5090101960677296 0.5090101960677296 0.519258171896823 0.519258171896823 
0.519258171896823 0.519258171896823 0.5274568729479328 0.5274568729479328 0.5274568729479328 0.5274568729479328 0.5335739426936408 0.5335739426936408 0.5335739426936408 
0.5335739426936408 0.5375852398542843 0.5375852398542843 0.5375852398542843 0.5375852398542843 0.5394749336725572 0.5394749336725572 0.5394749336725572 0.5394749336725572 
0.5392355663902775 0.5392355663902775 0.5392355663902775 0.5392355663902775 0.5368680826807521 0.5368680826807521 0.5368680826807521 0.5368680826807521 0.5323818259205826 
0.5323818259205826 0.5323818259205826 0.5323818259205826 0.5257945013156247 0.5257945013156247 0.5257945013156247 0.5257945013156247 0.5171321060266324 0.5171321060266324 
0.5171321060266324 0.5171321060266324 0.5214920650908093 0.5214920650908093 0.5214920650908093 0.5214920650908093 0.508412500479135 0.508412500479135 0.508412500479135 
0.508412500479135 0.4933264639996472 0.4933264639996472 0.4933264639996472 0.4933264639996472 0.4762934933461758 0.4762934933461758 0.4762934933461758 0.4762934933461758 
0.457380809872266 0.457380809872266 0.457380809872266 0.457380809872266 0.4366630532992058 0.4366630532992058 0.4366630532992058 0.4366630532992058 0.4142219871471469 
0.4142219871471469 0.4142219871471469 0.4142219871471469 0.3901461760518431 0.3901461760518431 0.3901461760518431 0.3901461760518431 0.3645306362404961 0.3645306362404961 
0.3645306362404961 0.3645306362404961 0.3374764605461143 0.3374764605461143 0.3374764605461143 0.3374764605461143 0.3090904194402859 0.3090904194402859 0.3090904194402859 
0.3090904194402859 0.2794845396589073 0.2794845396589073 0.2794845396589073 0.2794845396589073 0.2487756620838357 0.2487756620838357 0.2487756620838357 0.2487756620838357 
0.2170849806253082 0.2170849806253082 0.2170849806253082 0.2170849806253082 0.1845375639249465 0.1845375639249465 0.1845375639249465 0.1845375639249465 0.1512618617669664 
0.1512618617669664 0.1512618617669664 0.1512618617669664 0.1173891981455638 0.1173891981455638 0.1173891981455638 0.1173891981455638 0.08305325298910338 0.08305325298910338 
0.08305325298910338 0.08305325298910338 0.04838953458651753 0.04838953458651753 0.04838953458651753 0.04838953458651753 0.0135348447979934 0.0135348447979934 0.0135348447979934 
0.0135348447979934 -0.02137326083946552 -0.02137326083946552 -0.02137326083946552 -0.02137326083946552 -0.05619701598090505 -0.05619701598090505 -0.05619701598090505 -0.05619701598090505 
-0.09079898717424259 -0.09079898717424259 -0.09079898717424259 -0.09079898717424259 -0.1250426162473147 -0.1250426162473147 -0.1250426162473147 -0.1250426162473147 -0.158792759240596 
-0.158792759240596 -0.158792759240596 -0.158792759240596 -0.191916219758666 -0.191916219758666 -0.191916219758666 -0.191916219758666 -0.2242822746355289 -0.2242822746355289 
-0.2242822746355289 -0.2242822746355289 -0.2557631898392303 -0.2557631898392303 -0.2557631898392303 -0.2557631898392303 -0.2862347245797229 -0.2862347245797229 -0.2862347245797229 
-0.2862347245797229 -0.3155766216305057 -0.3155766216305057 -0.3155766216305057 -0.3155766216305057 -0.343673081928958 -0.343673081928958 -0.343673081928958 -0.343673081928958 
-0.370413221582333 -0.370413221582333 -0.370413221582333 -0.370413221582333 -0.3956915094758263 -0.3956915094758263 -0.3956915094758263 -0.3956915094758263 -0.4194081837556735 
-0.4194081837556735 -0.4194081837556735 -0.4194081837556735 -0.4414696455436099 -0.4414696455436099 -0.4414696455436099 -0.4414696455436099 -0.461788828328882 -0.461788828328882 
-0.461788828328882 -0.461788828328882 -0.4802855415799877 -0.4802855415799877 -0.4802855415799877 -0.4802855415799877 -0.4968867872200693 -0.4968867872200693 -0.4968867872200693 
-0.4968867872200693 -0.5115270477169733 -0.5115270477169733 -0.5115270477169733 -0.5115270477169733 -0.5241485446510172 -0.5241485446510172 -0.5241485446510172 -0.5241485446510172 
-0.5347014667400156 -0.5347014667400156 -0.5347014667400156 -0.5347014667400156 -0.5431441664216551 -0.5431441664216551 -0.5431441664216551 -0.5431441664216551 -0.5494433242173946 
-0.5494433242173946 -0.5494433242173946 -0.5494433242173946 -0.5535740802292259 -0.5535740802292259 -0.5535740802292259 -0.5535740802292259 -0.5555201322503331 -0.5555201322503331 
-0.5555201322503331 -0.5555201322503331 -0.5552738001024553 -0.5552738001024553 -0.5552738001024553 -0.5552738001024553 -0.5528360559460421 -0.5528360559460421 -0.5528360559460421 
-0.5528360559460421 -0.5482165204435792 -0.5482165204435792 -0.5482165204435792 -0.5482165204435792 -0.5414334247912296 -0.5414334247912296 -0.5414334247912296 -0.5414334247912296 
-0.5325135387686322 -0.5325135387686322 -0.5325135387686322 -0.5325135387686322 -0.5214920650908093 -0.5214920650908093 -0.5214920650908093 -0.5214920650908093 -0.5084125004791349 
-0.5084125004791349 -0.5084125004791349 -0.5084125004791349 -0.4933264639996472 -0.4933264639996472 -0.4933264639996472 -0.4933264639996472 -0.4762934933461757 -0.4762934933461757 
-0.4762934933461757 -0.4762934933461757 -0.4573808098722658 -0.4573808098722658 -0.4573808098722658 -0.4573808098722658 -0.4366630532992054 -0.4366630532992054 -0.4366630532992054 
-0.4366630532992054 -0.4142219871471469 -0.4142219871471469 -0.4142219871471469 -0.4142219871471469 -0.3901461760518425 -0.3901461760518425 -0.3901461760518425 -0.3901461760518425 
-0.3645306362404962 -0.3645306362404962 -0.3645306362404962 -0.3645306362404962 -0.3374764605461143 -0.3374764605461143 -0.3374764605461143 -0.3374764605461143 -0.309090419440286 
-0.309090419440286 -0.309090419440286 -0.309090419440286 -0.2794845396589075 -0.2794845396589075 -0.2794845396589075 -0.2794845396589075 -0.2487756620838368 -0.2487756620838368 
-0.2487756620838368 -0.2487756620838368 -0.2170849806253081 -0.2170849806253081 -0.2170849806253081 -0.2170849806253081 -0.1845375639249467 -0.1845375639249467 -0.1845375639249467 
-0.1845375639249467 -0.151261861766967 -0.151261861766967 -0.151261861766967 -0.151261861766967 -0.1173891981455641 -0.1173891981455641 -0.1173891981455641 -0.1173891981455641 
-0.08305325298910377 -0.08305325298910377 -0.08305325298910377 -0.08305325298910377 -0.04838953458651769 -0.04838953458651769 -0.04838953458651769 -0.04838953458651769 -0.01353484479799336 
-0.01353484479799336 -0.01353484479799336 -0.01353484479799336 0.02137326083946563 0.02137326083946563 0.02137326083946563 0.02137326083946563 0.05619701598090546 0.05619701598090546 
0.05619701598090546 0.05619701598090546 0.09079898717424265 0.09079898717424265 0.09079898717424265 0.09079898717424265 0.1250426162473149 0.1250426162473149 0.1250426162473149 
0.1250426162473149 0.1587927592405962 0.1587927592405962 0.1587927592405962 0.1587927592405962 0.1919162197586658 0.1919162197586658 0.1919162197586658 0.1919162197586658 