Title = RSC/Post/Linear_Advection_2D/Sine_Wave_2D/Quad100/
FileType = Solution
Variables = q
Zone T = RSC/Post/Linear_Advection_2D/Sine_Wave_2D/Quad100/
ZoneType = FETriangle
Nodes = 40000
Elements = 20000
DataPacking = Block
StrandID = 20
SolutionTime = 1.9
0.120827618912485 0.120827618912485 0.120827618912485 0.120827618912485 0.1302094325268109 0.1302094325268109 0.1302094325268109 0.1302094325268109 0.1390773689979848 0.1390773689979848 
0.1390773689979848 0.1390773689979848 0.1473964306321296 0.1473964306321296 0.1473964306321296 0.1473964306321296 0.1551337858935934 0.1551337858935934 0.1551337858935934 
0.1551337858935934 0.1622588989760203 0.1622588989760203 0.1622588989760203 0.1622588989760203 0.1687436503132284 0.1687436503132284 0.1687436503132284 0.1687436503132284 
0.1745624475542909 0.1745624475542909 0.1745624475542909 0.1745624475542909 0.1796923265648529 0.1796923265648529 0.1796923265648529 0.1796923265648529 0.1841130420560786 
0.1841130420560786 0.1841130420560786 0.1841130420560786 0.1878071474835569 0.1878071474835569 0.1878071474835569 0.1878071474835569 0.1907600639008418 0.1907600639008418 
0.1907600639008418 0.1907600639008418 0.1929601374958935 0.1929601374958935 0.1929601374958935 0.1929601374958935 0.1943986855833502 0.1943986855833502 0.1943986855833502 
0.1943986855833502 0.195070030871121 0.195070030871121 0.195070030871121 0.195070030871121 0.1949715238660634 0.1949715238660634 0.1949715238660634 0.1949715238660634 
0.194103553330323 0.194103553330323 0.194103553330323 0.194103553330323 0.1924695447470662 0.1924695447470662 0.1924695447470662 0.1924695447470662 0.1900759468016634 
0.1900759468016634 0.1900759468016634 0.1900759468016634 0.1869322059316742 0.1869322059316742 0.1869322059316742 0.1869322059316742 0.1830507290460743 0.1830507290460743 
0.1830507290460743 0.1830507290460743 0.1784468345608528 0.1784468345608528 0.1784468345608528 0.1784468345608528 0.1731386919442237 0.1731386919442237 0.1731386919442237 
0.1731386919442237 0.167147250010035 0.167147250010035 0.167147250010035 0.167147250010035 0.1604961542423715 0.1604961542423715 0.1604961542423715 0.1604961542423715 
0.1532116534776317 0.1532116534776317 0.1532116534776317 0.1532116534776317 0.1453224963123618 0.1453224963123618 0.1453224963123618 0.1453224963123618 0.1368598176456805 
0.1368598176456805 0.1368598176456805 0.1368598176456805 0.1278570158040549 0.1278570158040549 0.1278570158040549 0.1278570158040549 0.1183496207333651 0.1183496207333651 
0.1183496207333651 0.1183496207333651 0.1083751537784391 0.1083751537784391 0.1083751537784391 0.1083751537784391 0.09797297960344754 0.09797297960344754 0.09797297960344754 
0.09797297960344754 0.08718415083755812 0.08718415083755812 0.08718415083755812 0.08718415083755812 0.0760512460589627 0.0760512460589627 0.0760512460589627 0.0760512460589627 
0.06461820175668193 0.06461820175668193 0.06461820175668193 0.06461820175668193 0.05293013893331573 0.05293013893331573 0.05293013893331573 0.05293013893331573 0.04103318503306004 
0.04103318503306004 0.04103318503306004 0.04103318503306004 0.02897429189775794 0.02897429189775794 0.02897429189775794 0.02897429189775794 0.01680105046943023 0.01680105046943023 
0.01680105046943023 0.01680105046943023 0.004561502970569514 0.004561502970569514 0.004561502970569514 0.004561502970569514 -0.007696046696563492 -0.007696046696563492 -0.007696046696563492 
-0.007696046696563492 -0.01992322358337453 -0.01992322358337453 -0.01992322358337453 -0.01992322358337453 -0.03207177260875706 -0.03207177260875706 -0.03207177260875706 -0.03207177260875706 
-0.04409374899985199 -0.04409374899985199 -0.04409374899985199 -0.04409374899985199 -0.05594170750816223 -0.05594170750816223 -0.05594170750816223 -0.05594170750816223 -0.06756888965427282 
-0.06756888965427282 -0.06756888965427282 -0.06756888965427282 -0.07892940826220735 -0.07892940826220735 -0.07892940826220735 -0.07892940826220735 -0.08997842855514751 -0.08997842855514751 
-0.08997842855514751 -0.08997842855514751 -0.1006723450978144 -0.1006723450978144 -0.1006723450978144 -0.1006723450978144 -0.1109689538871998 -0.1109689538871998 -0.1109689538871998 
-0.1109689538871998 -0.120827618912485 -0.120827618912485 -0.120827618912485 -0.120827618912485 -0.1302094325268112 -0.1302094325268112 -0.1302094325268112 -0.1302094325268112 
-0.139077368997985 -0.139077368997985 -0.139077368997985 -0.139077368997985 -0.14739643063213 -0.14739643063213 -0.14739643063213 -0.14739643063213 -0.1551337858935935 
-0.1551337858935935 -0.1551337858935935 -0.1551337858935935 -0.1622588989760202 -0.1622588989760202 -0.1622588989760202 -0.1622588989760202 -0.1687436503132282 -0.1687436503132282 
-0.1687436503132282 -0.1687436503132282 -0.1745624475542905 -0.1745624475542905 -0.1745624475542905 -0.1745624475542905 -0.1796923265648531 -0.1796923265648531 -0.1796923265648531 
-0.1796923265648531 -0.1841130420560786 -0.1841130420560786 -0.1841130420560786 -0.1841130420560786 -0.1878071474835569 -0.1878071474835569 -0.1878071474835569 -0.1878071474835569 
-0.1907600639008418 -0.1907600639008418 -0.1907600639008418 -0.1907600639008418 -0.1929601374958934 -0.1929601374958934 -0.1929601374958934 -0.1929601374958934 -0.1943986855833502 
-0.1943986855833502 -0.1943986855833502 -0.1943986855833502 -0.1950700308711216 -0.1950700308711216 -0.1950700308711216 -0.1950700308711216 -0.1949715238660637 -0.1949715238660637 
-0.1949715238660637 -0.1949715238660637 -0.1941035533303231 -0.1941035533303231 -0.1941035533303231 -0.1941035533303231 -0.192469544747066 -0.192469544747066 -0.192469544747066 
-0.192469544747066 -0.1900759468016633 -0.1900759468016633 -0.1900759468016633 -0.1900759468016633 -0.1869322059316743 -0.1869322059316743 -0.1869322059316743 -0.1869322059316743 
-0.1830507290460744 -0.1830507290460744 -0.1830507290460744 -0.1830507290460744 -0.1784468345608527 -0.1784468345608527 -0.1784468345608527 -0.1784468345608527 -0.1731386919442235 
-0.1731386919442235 -0.1731386919442235 -0.1731386919442235 -0.1671472500100347 -0.1671472500100347 -0.1671472500100347 -0.1671472500100347 -0.1604961542423713 -0.1604961542423713 
-0.1604961542423713 -0.1604961542423713 -0.1532116534776314 -0.1532116534776314 -0.1532116534776314 -0.1532116534776314 -0.1453224963123617 -0.1453224963123617 -0.1453224963123617 
-0.1453224963123617 -0.1368598176456804 -0.1368598176456804 -0.1368598176456804 -0.1368598176456804 -0.1278570158040548 -0.1278570158040548 -0.1278570158040548 -0.1278570158040548 
-0.1183496207333648 -0.1183496207333648 -0.1183496207333648 -0.1183496207333648 -0.1083751537784388 -0.1083751537784388 -0.1083751537784388 -0.1083751537784388 -0.09797297960344747 
-0.09797297960344747 -0.09797297960344747 -0.09797297960344747 -0.08718415083755821 -0.08718415083755821 -0.08718415083755821 -0.08718415083755821 -0.07605124605896273 -0.07605124605896273 
-0.07605124605896273 -0.07605124605896273 -0.06461820175668187 -0.06461820175668187 -0.06461820175668187 -0.06461820175668187 -0.05293013893331577 -0.05293013893331577 -0.05293013893331577 
-0.05293013893331577 -0.04103318503306011 -0.04103318503306011 -0.04103318503306011 -0.04103318503306011 -0.02897429189775808 -0.02897429189775808 -0.02897429189775808 -0.02897429189775808 
-0.01680105046943034 -0.01680105046943034 -0.01680105046943034 -0.01680105046943034 -0.004561502970569691 -0.004561502970569691 -0.004561502970569691 -0.004561502970569691 0.007696046696563544 
0.007696046696563544 0.007696046696563544 0.007696046696563544 0.01992322358337456 0.01992322358337456 0.01992322358337456 0.01992322358337456 0.03207177260875704 0.03207177260875704 
0.03207177260875704 0.03207177260875704 0.04409374899985213 0.04409374899985213 0.04409374899985213 0.04409374899985213 0.05594170750816232 0.05594170750816232 0.05594170750816232 
0.05594170750816232 0.06756888965427282 0.06756888965427282 0.06756888965427282 0.06756888965427282 0.0789294082622073 0.0789294082622073 0.0789294082622073 0.0789294082622073 
0.08997842855514748 0.08997842855514748 0.08997842855514748 0.08997842855514748 0.1006723450978144 0.1006723450978144 0.1006723450978144 0.1006723450978144 0.1109689538871997 
0.1109689538871997 0.1109689538871997 0.1109689538871997 0.1413999630313302 0.1413999630313302 0.1413999630313302 0.1413999630313302 0.1523798270626854 0.1523798270626854 
0.1523798270626854 0.1523798270626854 0.1627583175323452 0.1627583175323452 0.1627583175323452 0.1627583175323452 0.172494475279907 0.172494475279907 0.172494475279907 
0.172494475279907 0.1815498761387688 0.1815498761387688 0.1815498761387688 0.1815498761387688 0.1898887825787598 0.1898887825787598 0.1898887825787598 0.1898887825787598 
0.1974782847458451 0.1974782847458451 0.1974782847458451 0.1974782847458451 0.2042884303422852 0.2042884303422852 0.2042884303422852 0.2042884303422852 0.2102923428346702 
0.2102923428346702 0.2102923428346702 0.2102923428346702 0.2154663275233197 0.2154663275233197 0.2154663275233197 0.2154663275233197 0.219789965054436 0.219789965054436 
0.219789965054436 0.219789965054436 0.2232461920059662 0.2232461920059662 0.2232461920059662 0.2232461920059662 0.2258213682291323 0.2258213682291323 0.2258213682291323 
0.2258213682291323 0.2275053306798678 0.2275053306798678 0.2275053306798678 0.2275053306798678 0.2282914335277088 0.2282914335277088 0.2282914335277088 0.2282914335277088 
0.228176574383851 0.228176574383851 0.228176574383851 0.228176574383851 0.2271612065448613 0.2271612065448613 0.2271612065448613 0.2271612065448613 0.2252493372037225 
0.2252493372037225 0.2252493372037225 0.2252493372037225 0.2224485116352742 0.2224485116352742 0.2224485116352742 0.2224485116352742 0.2187697834184593 0.2187697834184593 
0.2187697834184593 0.2187697834184593 0.2142276708128988 0.2142276708128988 0.2142276708128988 0.2142276708128988 0.2088400994619529 0.2088400994619529 0.2088400994619529 
0.2088400994619529 0.2026283316483966 0.2026283316483966 0.2026283316483966 0.2026283316483966 0.1956168823819033 0.1956168823819033 0.1956168823819033 0.1956168823819033 
0.1878334226495012 0.1878334226495012 0.1878334226495012 0.1878334226495012 0.1793086702108296 0.1793086702108296 0.1793086702108296 0.1793086702108296 0.1700762683691753 
0.1700762683691753 0.1700762683691753 0.1700762683691753 0.1601726531967239 0.1601726531967239 0.1601726531967239 0.1601726531967239 0.1496369097380296 0.1496369097380296 
0.1496369097380296 0.1496369097380296 0.1385106177592007 0.1385106177592007 0.1385106177592007 0.1385106177592007 0.1268376876515582 0.1268376876515582 0.1268376876515582 
0.1268376876515582 0.1146641871373823 0.1146641871373823 0.1146641871373823 0.1146641871373823 0.1020381594616595 0.1020381594616595 0.1020381594616595 0.1020381594616595 
0.08900943378734207 0.08900943378734207 0.08900943378734207 0.08900943378734207 0.07562942854240845 0.07562942854240845 0.07562942854240845 0.07562942854240845 0.06195094849481721 
0.06195094849481721 0.06195094849481721 0.06195094849481721 0.04802797635621318 0.04802797635621318 0.04802797635621318 0.04802797635621318 0.03391545973682639 0.03391545973682639 
0.03391545973682639 0.03391545973682639 0.01966909429235795 0.01966909429235795 0.01966909429235795 0.01966909429235795 0.005345103918672066 0.005345103918672066 0.005345103918672066 
0.005345103918672066 -0.008999981138235047 -0.008999981138235047 -0.008999981138235047 -0.008999981138235047 -0.0233095473812899 -0.0233095473812899 -0.0233095473812899 -0.0233095473812899 
-0.03752712148995002 -0.03752712148995002 -0.03752712148995002 -0.03752712148995002 -0.05159659319460043 -0.05159659319460043 -0.05159659319460043 -0.05159659319460043 -0.06546243671815297 
-0.06546243671815297 -0.06546243671815297 -0.06546243671815297 -0.07906992991092139 -0.07906992991092139 -0.07906992991092139 -0.07906992991092139 -0.09236537021394609 -0.09236537021394609 
-0.09236537021394609 -0.09236537021394609 -0.1052962865984602 -0.1052962865984602 -0.1052962865984602 -0.1052962865984602 -0.1178116466450677 -0.1178116466450677 -0.1178116466450677 
-0.1178116466450677 -0.1298620579453888 -0.1298620579453888 -0.1298620579453888 -0.1298620579453888 -0.1413999630313302 -0.1413999630313302 -0.1413999630313302 -0.1413999630313302 
-0.1523798270626854 -0.1523798270626854 -0.1523798270626854 -0.1523798270626854 -0.162758317532345 -0.162758317532345 -0.162758317532345 -0.162758317532345 -0.1724944752799069 
-0.1724944752799069 -0.1724944752799069 -0.1724944752799069 -0.1815498761387687 -0.1815498761387687 -0.1815498761387687 -0.1815498761387687 -0.1898887825787597 -0.1898887825787597 
-0.1898887825787597 -0.1898887825787597 -0.1974782847458451 -0.1974782847458451 -0.1974782847458451 -0.1974782847458451 -0.204288430342285 -0.204288430342285 -0.204288430342285 
-0.204288430342285 -0.2102923428346702 -0.2102923428346702 -0.2102923428346702 -0.2102923428346702 -0.2154663275233196 -0.2154663275233196 -0.2154663275233196 -0.2154663275233196 
-0.219789965054436 -0.219789965054436 -0.219789965054436 -0.219789965054436 -0.2232461920059662 -0.2232461920059662 -0.2232461920059662 -0.2232461920059662 -0.2258213682291323 
-0.2258213682291323 -0.2258213682291323 -0.2258213682291323 -0.2275053306798677 -0.2275053306798677 -0.2275053306798677 -0.2275053306798677 -0.2282914335277091 -0.2282914335277091 
-0.2282914335277091 -0.2282914335277091 -0.2281765743838516 -0.2281765743838516 -0.2281765743838516 -0.2281765743838516 -0.2271612065448615 -0.2271612065448615 -0.2271612065448615 
-0.2271612065448615 -0.2252493372037227 -0.2252493372037227 -0.2252493372037227 -0.2252493372037227 -0.222448511635274 -0.222448511635274 -0.222448511635274 -0.222448511635274 
-0.2187697834184594 -0.2187697834184594 -0.2187697834184594 -0.2187697834184594 -0.2142276708128985 -0.2142276708128985 -0.2142276708128985 -0.2142276708128985 -0.2088400994619528 
-0.2088400994619528 -0.2088400994619528 -0.2088400994619528 -0.2026283316483964 -0.2026283316483964 -0.2026283316483964 -0.2026283316483964 -0.1956168823819033 -0.1956168823819033 
-0.1956168823819033 -0.1956168823819033 -0.1878334226495011 -0.1878334226495011 -0.1878334226495011 -0.1878334226495011 -0.1793086702108298 -0.1793086702108298 -0.1793086702108298 
-0.1793086702108298 -0.1700762683691753 -0.1700762683691753 -0.1700762683691753 -0.1700762683691753 -0.1601726531967238 -0.1601726531967238 -0.1601726531967238 -0.1601726531967238 
-0.1496369097380294 -0.1496369097380294 -0.1496369097380294 -0.1496369097380294 -0.1385106177592004 -0.1385106177592004 -0.1385106177592004 -0.1385106177592004 -0.1268376876515578 
-0.1268376876515578 -0.1268376876515578 -0.1268376876515578 -0.1146641871373821 -0.1146641871373821 -0.1146641871373821 -0.1146641871373821 -0.1020381594616595 -0.1020381594616595 
-0.1020381594616595 -0.1020381594616595 -0.08900943378734229 -0.08900943378734229 -0.08900943378734229 -0.08900943378734229 -0.07562942854240873 -0.07562942854240873 -0.07562942854240873 
-0.07562942854240873 -0.06195094849481764 -0.06195094849481764 -0.06195094849481764 -0.06195094849481764 -0.04802797635621321 -0.04802797635621321 -0.04802797635621321 -0.04802797635621321 
-0.03391545973682652 -0.03391545973682652 -0.03391545973682652 -0.03391545973682652 -0.01966909429235789 -0.01966909429235789 -0.01966909429235789 -0.01966909429235789 -0.005345103918672192 
-0.005345103918672192 -0.005345103918672192 -0.005345103918672192 0.008999981138235354 0.008999981138235354 0.008999981138235354 0.008999981138235354 0.02330954738128993 0.02330954738128993 
0.02330954738128993 0.02330954738128993 0.0375271214899499 0.0375271214899499 0.0375271214899499 0.0375271214899499 0.0515965931946003 0.0515965931946003 0.0515965931946003 
0.0515965931946003 0.06546243671815252 0.06546243671815252 0.06546243671815252 0.06546243671815252 0.07906992991092113 0.07906992991092113 0.07906992991092113 0.07906992991092113 
0.09236537021394603 0.09236537021394603 0.09236537021394603 0.09236537021394603 0.1052962865984603 0.1052962865984603 0.1052962865984603 0.1052962865984603 0.1178116466450677 
0.1178116466450677 0.1178116466450677 0.1178116466450677 0.1298620579453887 0.1298620579453887 0.1298620579453887 0.1298620579453887 0.1614142660955892 0.1614142660955892 
0.1614142660955892 0.1614142660955892 0.1739488480368644 0.1739488480368644 0.1739488480368644 0.1739488480368644 0.1857969333446076 0.1857969333446076 0.1857969333446076 
0.1857969333446076 0.1969117630389843 0.1969117630389843 0.1969117630389843 0.1969117630389843 0.2072494719650734 0.2072494719650734 0.2072494719650734 0.2072494719650734 
0.2167692619085937 0.2167692619085937 0.2167692619085937 0.2167692619085937 0.2254335626078166 0.2254335626078166 0.2254335626078166 0.2254335626078166 0.2332081800262245 
0.2332081800262245 0.2332081800262245 0.2332081800262245 0.2400624313007518 0.2400624313007518 0.2400624313007518 0.2400624313007518 0.2459692658330276 0.2459692658330276 
0.2459692658330276 0.2459692658330276 0.2509053720457288 0.2509053720457288 0.2509053720457288 0.2509053720457288 0.2548512693827265 0.2548512693827265 0.2548512693827265 
0.2548512693827265 0.2577913851899405 0.2577913851899405 0.2577913851899405 0.2577913851899405 0.2597141161734909 0.2597141161734909 0.2597141161734909 0.2597141161734909 
0.2606118741925979 0.2606118741925979 0.2606118741925979 0.2606118741925979 0.2604811162065065 0.2604811162065065 0.2604811162065065 0.2604811162065065 0.2593223582572505 
0.2593223582572505 0.2593223582572505 0.2593223582572505 0.2571401734330694 0.2571401734330694 0.2571401734330694 0.2571401734330694 0.2539431738205186 0.2539431738205186 
0.2539431738205186 0.2539431738205186 0.2497439765164985 0.2497439765164985 0.2497439765164985 0.2497439765164985 0.2445591538343378 0.2445591538343378 0.2445591538343378 
0.2445591538343378 0.2384091679004425 0.2384091679004425 0.2384091679004425 0.2384091679004425 0.2313182898996325 0.2313182898996325 0.2313182898996325 0.2313182898996325 
0.2233145042878628 0.2233145042878628 0.2233145042878628 0.2233145042878628 0.2144293983503615 0.2144293983503615 0.2144293983503615 0.2144293983503615 0.2046980375410449 
0.2046980375410449 0.2046980375410449 0.2046980375410449 0.1941588270951917 0.1941588270951917 0.1941588270951917 0.1941588270951917 0.1828533604615242 0.1828533604615242 
0.1828533604615242 0.1828533604615242 0.1708262551518694 0.1708262551518694 0.1708262551518694 0.1708262551518694 0.1581249766562227 0.1581249766562227 0.1581249766562227 
0.1581249766562227 0.144799651118144 0.144799651118144 0.144799651118144 0.144799651118144 0.1309028675097698 0.1309028675097698 0.1309028675097698 0.1309028675097698 
0.1164894700871662 0.1164894700871662 0.1164894700871662 0.1164894700871662 0.1016163419451053 0.1016163419451053 0.1016163419451053 0.1016163419451053 0.08634218052547768 
0.08634218052547768 0.08634218052547768 0.08634218052547768 0.07072726596530607 0.07072726596530607 0.07072726596530607 0.07072726596530607 0.05483322319858373 0.05483322319858373 
0.05483322319858373 0.05483322319858373 0.03872277875081324 0.03872277875081324 0.03872277875081324 0.03872277875081324 0.02245951318606815 0.02245951318606815 0.02245951318606815 
0.02245951318606815 0.006107610183553422 0.006107610183553422 0.006107610183553422 0.006107610183553422 -0.01026839676605427 -0.01026839676605427 -0.01026839676605427 -0.01026839676605427 
-0.02660387904481059 -0.02660387904481059 -0.02660387904481059 -0.02660387904481059 -0.04283436796713318 -0.04283436796713318 -0.04283436796713318 -0.04283436796713318 -0.05889580920825084 
-0.05889580920825084 -0.05889580920825084 -0.05889580920825084 -0.0747248155973593 -0.0747248155973593 -0.0747248155973593 -0.0747248155973593 -0.0902589172778261 -0.0902589172778261 
-0.0902589172778261 -0.0902589172778261 -0.1054368082471741 -0.1054368082471741 -0.1054368082471741 -0.1054368082471741 -0.1201985883038663 -0.1201985883038663 -0.1201985883038663 
-0.1201985883038663 -0.1344859994460347 -0.1344859994460347 -0.1344859994460347 -0.1344859994460347 -0.1482426557891982 -0.1482426557891982 -0.1482426557891982 -0.1482426557891982 
-0.1614142660955892 -0.1614142660955892 -0.1614142660955892 -0.1614142660955892 -0.1739488480368646 -0.1739488480368646 -0.1739488480368646 -0.1739488480368646 -0.1857969333446076 
-0.1857969333446076 -0.1857969333446076 -0.1857969333446076 -0.1969117630389843 -0.1969117630389843 -0.1969117630389843 -0.1969117630389843 -0.2072494719650734 -0.2072494719650734 
-0.2072494719650734 -0.2072494719650734 -0.2167692619085938 -0.2167692619085938 -0.2167692619085938 -0.2167692619085938 -0.2254335626078164 -0.2254335626078164 -0.2254335626078164 
-0.2254335626078164 -0.2332081800262246 -0.2332081800262246 -0.2332081800262246 -0.2332081800262246 -0.2400624313007517 -0.2400624313007517 -0.2400624313007517 -0.2400624313007517 
-0.2459692658330275 -0.2459692658330275 -0.2459692658330275 -0.2459692658330275 -0.2509053720457288 -0.2509053720457288 -0.2509053720457288 -0.2509053720457288 -0.2548512693827266 
-0.2548512693827266 -0.2548512693827266 -0.2548512693827266 -0.2577913851899405 -0.2577913851899405 -0.2577913851899405 -0.2577913851899405 -0.2597141161734911 -0.2597141161734911 
-0.2597141161734911 -0.2597141161734911 -0.260611874192598 -0.260611874192598 -0.260611874192598 -0.260611874192598 -0.2604811162065066 -0.2604811162065066 -0.2604811162065066 
-0.2604811162065066 -0.2593223582572507 -0.2593223582572507 -0.2593223582572507 -0.2593223582572507 -0.2571401734330695 -0.2571401734330695 -0.2571401734330695 -0.2571401734330695 
-0.2539431738205187 -0.2539431738205187 -0.2539431738205187 -0.2539431738205187 -0.2497439765164989 -0.2497439765164989 -0.2497439765164989 -0.2497439765164989 -0.2445591538343379 
-0.2445591538343379 -0.2445591538343379 -0.2445591538343379 -0.2384091679004426 -0.2384091679004426 -0.2384091679004426 -0.2384091679004426 -0.2313182898996324 -0.2313182898996324 
-0.2313182898996324 -0.2313182898996324 -0.2233145042878628 -0.2233145042878628 -0.2233145042878628 -0.2233145042878628 -0.2144293983503614 -0.2144293983503614 -0.2144293983503614 
-0.2144293983503614 -0.2046980375410447 -0.2046980375410447 -0.2046980375410447 -0.2046980375410447 -0.1941588270951916 -0.1941588270951916 -0.1941588270951916 -0.1941588270951916 
-0.1828533604615241 -0.1828533604615241 -0.1828533604615241 -0.1828533604615241 -0.1708262551518694 -0.1708262551518694 -0.1708262551518694 -0.1708262551518694 -0.1581249766562225 
-0.1581249766562225 -0.1581249766562225 -0.1581249766562225 -0.1447996511181437 -0.1447996511181437 -0.1447996511181437 -0.1447996511181437 -0.1309028675097696 -0.1309028675097696 
-0.1309028675097696 -0.1309028675097696 -0.1164894700871663 -0.1164894700871663 -0.1164894700871663 -0.1164894700871663 -0.1016163419451054 -0.1016163419451054 -0.1016163419451054 
-0.1016163419451054 -0.08634218052547765 -0.08634218052547765 -0.08634218052547765 -0.08634218052547765 -0.07072726596530589 -0.07072726596530589 -0.07072726596530589 -0.07072726596530589 
-0.05483322319858355 -0.05483322319858355 -0.05483322319858355 -0.05483322319858355 -0.03872277875081317 -0.03872277875081317 -0.03872277875081317 -0.03872277875081317 -0.02245951318606833 
-0.02245951318606833 -0.02245951318606833 -0.02245951318606833 -0.006107610183553454 -0.006107610183553454 -0.006107610183553454 -0.006107610183553454 0.01026839676605435 0.01026839676605435 
0.01026839676605435 0.01026839676605435 0.02660387904481074 0.02660387904481074 0.02660387904481074 0.02660387904481074 0.04283436796713312 0.04283436796713312 0.04283436796713312 
0.04283436796713312 0.05889580920825084 0.05889580920825084 0.05889580920825084 0.05889580920825084 0.07472481559735941 0.07472481559735941 0.07472481559735941 0.07472481559735941 
0.09025891727782626 0.09025891727782626 0.09025891727782626 0.09025891727782626 0.1054368082471741 0.1054368082471741 0.1054368082471741 0.1054368082471741 0.1201985883038665 
0.1201985883038665 0.1201985883038665 0.1201985883038665 0.1344859994460347 0.1344859994460347 0.1344859994460347 0.1344859994460347 0.1482426557891983 0.1482426557891983 
0.1482426557891983 0.1482426557891983 0.1807915407947324 0.1807915407947324 0.1807915407947324 0.1807915407947324 0.1948313723775114 0.1948313723775114 0.1948313723775114 
0.1948313723775114 0.2081022935435035 0.2081022935435035 0.2081022935435035 0.2081022935435035 0.220551930029774 0.220551930029774 0.220551930029774 0.220551930029774 
0.2321311488088091 0.2321311488088091 0.2321311488088091 0.2321311488088091 0.2427942519941302 0.2427942519941302 0.2427942519941302 0.2427942519941302 0.2524991571889731 
0.2524991571889731 0.2524991571889731 0.2524991571889731 0.2612075635662833 0.2612075635662833 0.2612075635662833 0.2612075635662833 0.2688851030245818 0.2688851030245818 
0.2688851030245818 0.2688851030245818 0.275501475823161 0.275501475823161 0.275501475823161 0.275501475823161 0.281030570161318 0.281030570161318 0.281030570161318 
0.281030570161318 0.2854505652297031 0.2854505652297031 0.2854505652297031 0.2854505652297031 0.288744017327085 0.288744017327085 0.288744017327085 0.288744017327085 
0.2908979287026706 0.2908979287026706 0.2908979287026706 0.2908979287026706 0.2919037988522888 0.2919037988522888 0.2919037988522888 0.2919037988522888 0.2917576580659975 
0.2917576580659975 0.2917576580659975 0.2917576580659975 0.2904600830947147 0.2904600830947147 0.2904600830947147 0.2904600830947147 0.2880161948740466 0.2880161948740466 
0.2880161948740466 0.2880161948740466 0.284435638314294 0.284435638314294 0.284435638314294 0.284435638314294 0.279732544236397 0.279732544236397 0.279732544236397 
0.279732544236397 0.2739254736040423 0.2739254736040423 0.2739254736040423 0.2739254736040423 0.2670373442720173 0.2670373442720173 0.2670373442720173 0.2670373442720173 
0.2590953405399087 0.2590953405399087 0.2590953405399087 0.2590953405399087 0.2501308058680907 0.2501308058680907 0.2501308058680907 0.2501308058680907 0.2401791191794066 
0.2401791191794066 0.2401791191794066 0.2401791191794066 0.2292795552347233 0.2292795552347233 0.2292795552347233 0.2292795552347233 0.217475129633394 0.217475129633394 
0.217475129633394 0.217475129633394 0.2048124290503373 0.2048124290503373 0.2048124290503373 0.2048124290503373 0.1913414273797174 0.1913414273797174 0.1913414273797174 
0.1913414273797174 0.177115288510813 0.177115288510813 0.177115288510813 0.177115288510813 0.1621901565144346 0.1621901565144346 0.1621901565144346 0.1621901565144346 
0.1466249340679279 0.1466249340679279 0.1466249340679279 0.1466249340679279 0.1304810499932157 0.1304810499932157 0.1304810499932157 0.1304810499932157 0.1138222168253017 
0.1138222168253017 0.1138222168253017 0.1138222168253017 0.09671417936800288 0.09671417936800288 0.09671417936800288 0.09671417936800288 0.07922445522924404 0.07922445522924404 
0.07922445522924404 0.07922445522924404 0.06142206835990611 0.06142206835990611 0.06142206835990611 0.06142206835990611 0.04337727664782559 0.04337727664782559 0.04337727664782559 
0.04337727664782559 0.02516129464200857 0.02516129464200857 0.02516129464200857 0.02516129464200857 0.006846012501341797 0.006846012501341797 0.006846012501341797 0.006846012501341797 
-0.01149628772302217 -0.01149628772302217 -0.01149628772302217 -0.01149628772302217 -0.02979321735189759 -0.02979321735189759 -0.02979321735189759 -0.02979321735189759 -0.04797256676311128 
-0.04797256676311128 -0.04797256676311128 -0.04797256676311128 -0.0659625903698921 -0.0659625903698921 -0.0659625903698921 -0.0659625903698921 -0.08369228976792409 -0.08369228976792409 
-0.08369228976792409 -0.08369228976792409 -0.1010916939336125 -0.1010916939336125 -0.1010916939336125 -0.1010916939336125 -0.1180921353677463 -0.1180921353677463 -0.1180921353677463 
-0.1180921353677463 -0.1346265210947485 -0.1346265210947485 -0.1346265210947485 -0.1346265210947485 -0.1506295974479968 -0.1506295974479968 -0.1506295974479968 -0.1506295974479968 
-0.1660382075962349 -0.1660382075962349 -0.1660382075962349 -0.1660382075962349 -0.1807915407947324 -0.1807915407947324 -0.1807915407947324 -0.1807915407947324 -0.1948313723775115 
-0.1948313723775115 -0.1948313723775115 -0.1948313723775115 -0.2081022935435037 -0.2081022935435037 -0.2081022935435037 -0.2081022935435037 -0.2205519300297741 -0.2205519300297741 
-0.2205519300297741 -0.2205519300297741 -0.2321311488088093 -0.2321311488088093 -0.2321311488088093 -0.2321311488088093 -0.2427942519941304 -0.2427942519941304 -0.2427942519941304 
-0.2427942519941304 -0.252499157188973 -0.252499157188973 -0.252499157188973 -0.252499157188973 -0.2612075635662833 -0.2612075635662833 -0.2612075635662833 -0.2612075635662833 
-0.2688851030245818 -0.2688851030245818 -0.2688851030245818 -0.2688851030245818 -0.275501475823161 -0.275501475823161 -0.275501475823161 -0.275501475823161 -0.281030570161318 
-0.281030570161318 -0.281030570161318 -0.281030570161318 -0.2854505652297031 -0.2854505652297031 -0.2854505652297031 -0.2854505652297031 -0.2887440173270851 -0.2887440173270851 
-0.2887440173270851 -0.2887440173270851 -0.2908979287026707 -0.2908979287026707 -0.2908979287026707 -0.2908979287026707 -0.2919037988522888 -0.2919037988522888 -0.2919037988522888 
-0.2919037988522888 -0.2917576580659976 -0.2917576580659976 -0.2917576580659976 -0.2917576580659976 -0.2904600830947148 -0.2904600830947148 -0.2904600830947148 -0.2904600830947148 
-0.2880161948740469 -0.2880161948740469 -0.2880161948740469 -0.2880161948740469 -0.2844356383142943 -0.2844356383142943 -0.2844356383142943 -0.2844356383142943 -0.2797325442363972 
-0.2797325442363972 -0.2797325442363972 -0.2797325442363972 -0.2739254736040424 -0.2739254736040424 -0.2739254736040424 -0.2739254736040424 -0.2670373442720173 -0.2670373442720173 
-0.2670373442720173 -0.2670373442720173 -0.2590953405399088 -0.2590953405399088 -0.2590953405399088 -0.2590953405399088 -0.2501308058680908 -0.2501308058680908 -0.2501308058680908 