Title = RSC/Post/Linear_Advection_2D/Sine_Wave_2D/Quad100/
FileType = Solution
Variables = q
Zone T = RSC/Post/Linear_Advection_2D/Sine_Wave_2D/Quad100/
ZoneType = FETriangle
Nodes = 40000
Elements = 20000
DataPacking = Block
StrandID = 4
SolutionTime = 0.3
0.6942144358339957 0.6942144358339957 0.6942144358339957 0.6942144358339957 0.705450392194679 0.705450392194679 0.705450392194679 0.705450392194679 0.7139022581469977 0.7139022581469977 
0.7139022581469977 0.7139022581469977 0.7195366780373278 0.7195366780373278 0.7195366780373278 0.7195366780373278 0.7223314153844849 0.7223314153844849 0.7223314153844849 
0.7223314153844849 0.7222754406369521 0.7222754406369521 0.7222754406369521 0.7222754406369521 0.7193689747014862 0.7193689747014862 0.7193689747014862 0.7193689747014862 
0.7136234880712964 0.7136234880712964 0.7136234880712964 0.7136234880712964 0.7050616555572489 0.7050616555572489 0.7050616555572489 0.7050616555572489 0.6937172668007474 
0.6937172668007474 0.6937172668007474 0.6937172668007474 0.6796350929214561 0.6796350929214561 0.6796350929214561 0.6796350929214561 0.6628707098261428 0.6628707098261428 
0.6628707098261428 0.6628707098261428 0.6434902788759669 0.6434902788759669 0.6434902788759669 0.6434902788759669 0.621570285777812 0.621570285777812 0.621570285777812 
0.621570285777812 0.5971972387301441 0.5971972387301441 0.5971972387301441 0.5971972387301441 0.5704673270146744 0.5704673270146744 0.5704673270146744 0.5704673270146744 
0.5414860413812096 0.5414860413812096 0.5414860413812096 0.5414860413812096 0.5103677577238535 0.5103677577238535 0.5103677577238535 0.5103677577238535 0.4772352856916109 
0.4772352856916109 0.4772352856916109 0.4772352856916109 0.4422193840148053 0.4422193840148053 0.4422193840148053 0.4422193840148053 0.405458244460113 0.405458244460113 
0.405458244460113 0.405458244460113 0.3670969464507888 0.3670969464507888 0.3670969464507888 0.3670969464507888 0.3272868845044653 0.3272868845044653 0.3272868845044653 
0.3272868845044653 0.2861851707481575 0.2861851707481575 0.2861851707481575 0.2861851707481575 0.2439540148684744 0.2439540148684744 0.2439540148684744 0.2439540148684744 
0.2007600839440932 0.2007600839440932 0.2007600839440932 0.2007600839440932 0.1567738446869426 0.1567738446869426 0.1567738446869426 0.1567738446869426 0.1121688906879695 
0.1121688906879695 0.1121688906879695 0.1121688906879695 0.06712125732254291 0.06712125732254291 0.06712125732254291 0.06712125732254291 0.0218087270192498 0.0218087270192498 
0.0218087270192498 0.0218087270192498 -0.02358987236612912 -0.02358987236612912 -0.02358987236612912 -0.02358987236612912 -0.06889537330246662 -0.06889537330246662 -0.06889537330246662 
-0.06889537330246662 -0.1139289756756806 -0.1139289756756806 -0.1139289756756806 -0.1139289756756806 -0.158512952431101 -0.158512952431101 -0.158512952431101 -0.158512952431101 
-0.2024713509809552 -0.2024713509809552 -0.2024713509809552 -0.2024713509809552 -0.2456306876088494 -0.2456306876088494 -0.2456306876088494 -0.2456306876088494 -0.2878206321307383 
-0.2878206321307383 -0.2878206321307383 -0.2878206321307383 -0.3288746801103462 -0.3288746801103462 -0.3288746801103462 -0.3288746801103462 -0.368630809976108 -0.368630809976108 
-0.368630809976108 -0.368630809976108 -0.4069321224462916 -0.4069321224462916 -0.4069321224462916 -0.4069321224462916 -0.4436274597387822 -0.4436274597387822 -0.4436274597387822 
-0.4436274597387822 -0.4785720021217917 -0.4785720021217917 -0.4785720021217917 -0.4785720021217917 -0.5116278394511786 -0.5116278394511786 -0.5116278394511786 -0.5116278394511786 
-0.5426645154387757 -0.5426645154387757 -0.5426645154387757 -0.5426645154387757 -0.5715595425037701 -0.5715595425037701 -0.5715595425037701 -0.5715595425037701 -0.5981988851752191 
-0.5981988851752191 -0.5981988851752191 -0.5981988851752191 -0.6224774101379569 -0.6224774101379569 -0.6224774101379569 -0.6224774101379569 -0.6442993011457581 -0.6442993011457581 
-0.6442993011457581 -0.6442993011457581 -0.6635784371642885 -0.6635784371642885 -0.6635784371642885 -0.6635784371642885 -0.6802387322514825 -0.6802387322514825 -0.6802387322514825 
-0.6802387322514825 -0.6942144358339957 -0.6942144358339957 -0.6942144358339957 -0.6942144358339957 -0.7054503921946791 -0.7054503921946791 -0.7054503921946791 -0.7054503921946791 
-0.7139022581469978 -0.7139022581469978 -0.7139022581469978 -0.7139022581469978 -0.7195366780373279 -0.7195366780373279 -0.7195366780373279 -0.7195366780373279 -0.7223314153844844 
-0.7223314153844844 -0.7223314153844844 -0.7223314153844844 -0.7222754406369516 -0.7222754406369516 -0.7222754406369516 -0.7222754406369516 -0.7193689747014853 -0.7193689747014853 
-0.7193689747014853 -0.7193689747014853 -0.7136234880712948 -0.7136234880712948 -0.7136234880712948 -0.7136234880712948 -0.7050616555572501 -0.7050616555572501 -0.7050616555572501 
-0.7050616555572501 -0.6937172668007481 -0.6937172668007481 -0.6937172668007481 -0.6937172668007481 -0.6796350929214563 -0.6796350929214563 -0.6796350929214563 -0.6796350929214563 
-0.6628707098261428 -0.6628707098261428 -0.6628707098261428 -0.6628707098261428 -0.6434902788759669 -0.6434902788759669 -0.6434902788759669 -0.6434902788759669 -0.6215702857778119 
-0.6215702857778119 -0.6215702857778119 -0.6215702857778119 -0.5971972387301465 -0.5971972387301465 -0.5971972387301465 -0.5971972387301465 -0.5704673270146762 -0.5704673270146762 
-0.5704673270146762 -0.5704673270146762 -0.5414860413812097 -0.5414860413812097 -0.5414860413812097 -0.5414860413812097 -0.5103677577238535 -0.5103677577238535 -0.5103677577238535 
-0.5103677577238535 -0.4772352856916103 -0.4772352856916103 -0.4772352856916103 -0.4772352856916103 -0.4422193840148057 -0.4422193840148057 -0.4422193840148057 -0.4422193840148057 
-0.4054582444601127 -0.4054582444601127 -0.4054582444601127 -0.4054582444601127 -0.3670969464507885 -0.3670969464507885 -0.3670969464507885 -0.3670969464507885 -0.3272868845044646 
-0.3272868845044646 -0.3272868845044646 -0.3272868845044646 -0.286185170748157 -0.286185170748157 -0.286185170748157 -0.286185170748157 -0.2439540148684737 -0.2439540148684737 
-0.2439540148684737 -0.2439540148684737 -0.2007600839440928 -0.2007600839440928 -0.2007600839440928 -0.2007600839440928 -0.1567738446869425 -0.1567738446869425 -0.1567738446869425 
-0.1567738446869425 -0.1121688906879694 -0.1121688906879694 -0.1121688906879694 -0.1121688906879694 -0.06712125732254258 -0.06712125732254258 -0.06712125732254258 -0.06712125732254258 
-0.02180872701924923 -0.02180872701924923 -0.02180872701924923 -0.02180872701924923 0.02358987236612948 0.02358987236612948 0.02358987236612948 0.02358987236612948 0.06889537330246663 
0.06889537330246663 0.06889537330246663 0.06889537330246663 0.1139289756756809 0.1139289756756809 0.1139289756756809 0.1139289756756809 0.1585129524311012 0.1585129524311012 
0.1585129524311012 0.1585129524311012 0.2024713509809556 0.2024713509809556 0.2024713509809556 0.2024713509809556 0.2456306876088492 0.2456306876088492 0.2456306876088492 
0.2456306876088492 0.2878206321307381 0.2878206321307381 0.2878206321307381 0.2878206321307381 0.3288746801103457 0.3288746801103457 0.3288746801103457 0.3288746801103457 
0.3686308099761076 0.3686308099761076 0.3686308099761076 0.3686308099761076 0.406932122446291 0.406932122446291 0.406932122446291 0.406932122446291 0.4436274597387822 
0.4436274597387822 0.4436274597387822 0.4436274597387822 0.4785720021217917 0.4785720021217917 0.4785720021217917 0.4785720021217917 0.5116278394511775 0.5116278394511775 
0.5116278394511775 0.5116278394511775 0.5426645154387755 0.5426645154387755 0.5426645154387755 0.5426645154387755 0.5715595425037709 0.5715595425037709 0.5715595425037709 
0.5715595425037709 0.5981988851752198 0.5981988851752198 0.5981988851752198 0.5981988851752198 0.6224774101379573 0.6224774101379573 0.6224774101379573 0.6224774101379573 
0.6442993011457583 0.6442993011457583 0.6442993011457583 0.6442993011457583 0.6635784371642887 0.6635784371642887 0.6635784371642887 0.6635784371642887 0.6802387322514825 
0.6802387322514825 0.6802387322514825 0.6802387322514825 0.6589890572246561 0.6589890572246561 0.6589890572246561 0.6589890572246561 0.6696549344966973 0.6696549344966973 
0.6696549344966973 0.6696549344966973 0.6776779896785184 0.6776779896785184 0.6776779896785184 0.6776779896785184 0.683026559436702 0.683026559436702 0.683026559436702 
0.683026559436702 0.6856795354099422 0.6856795354099422 0.6856795354099422 0.6856795354099422 0.6856264475141015 0.6856264475141015 0.6856264475141015 0.6856264475141015 
0.6828675052628512 0.6828675052628512 0.6828675052628512 0.6828675052628512 0.6774135969408164 0.6774135969408164 0.6774135969408164 0.6774135969408164 0.66928624663249 
0.66928624663249 0.66928624663249 0.66928624663249 0.6585175292765062 0.6585175292765062 0.6585175292765062 0.6585175292765062 0.64514994408051 0.64514994408051 
0.64514994408051 0.64514994408051 0.6292362467962014 0.6292362467962014 0.6292362467962014 0.6292362467962014 0.6108392415164844 0.6108392415164844 0.6108392415164844 
0.6108392415164844 0.5900315328164064 0.5900315328164064 0.5900315328164064 0.5900315328164064 0.5668952392160687 0.5668952392160687 0.5668952392160687 0.5668952392160687 
0.541521669096344 0.541521669096344 0.541521669096344 0.541521669096344 0.5140109603464147 0.5140109603464147 0.5140109603464147 0.5140109603464147 0.4844716851652682 
0.4844716851652682 0.4844716851652682 0.4844716851652682 0.4530204215768337 0.4530204215768337 0.4530204215768337 0.4530204215768337 0.4197812933497785 0.4197812933497785 
0.4197812933497785 0.4197812933497785 0.3848854801377026 0.3848854801377026 0.3848854801377026 0.3848854801377026 0.3484706997729733 0.3484706997729733 0.3484706997729733 
0.3484706997729733 0.3106806647573593 0.3106806647573593 0.3106806647573593 0.3106806647573593 0.2716645150944427 0.2716645150944427 0.2716645150944427 0.2716645150944427 
0.2315762297021595 0.2315762297021595 0.2315762297021595 0.2315762297021595 0.1905740187283573 0.1905740187283573 0.1905740187283573 0.1905740187283573 0.1488196991676224 
0.1488196991676224 0.1488196991676224 0.1488196991676224 0.1064780562435258 0.1064780562435258 0.1064780562435258 0.1064780562435258 0.06371619307663279 0.06371619307663279 
0.06371619307663279 0.06371619307663279 0.02070287120482621 0.02070287120482621 0.02070287120482621 0.02070287120482621 -0.02239215544138415 -0.02239215544138415 -0.02239215544138415 
-0.02239215544138415 -0.06539881048007044 -0.06539881048007044 -0.06539881048007044 -0.06539881048007044 -0.1081473662916655 -0.1081473662916655 -0.1081473662916655 -0.1081473662916655 
-0.1504691138563401 -0.1504691138563401 -0.1504691138563401 -0.1504691138563401 -0.1921970285714222 -0.1921970285714222 -0.1921970285714222 -0.1921970285714222 -0.2331664294212032 
-0.2331664294212032 -0.2331664294212032 -0.2331664294212032 -0.2732156288976673 -0.2732156288976673 -0.2732156288976673 -0.2732156288976673 -0.3121865711072204 -0.3121865711072204 
-0.3121865711072204 -0.3121865711072204 -0.3499254555450911 -0.3499254555450911 -0.3499254555450911 -0.3499254555450911 -0.3862833440756591 -0.3862833440756591 -0.3862833440756591 
-0.3862833440756591 -0.4211167487232337 -0.4211167487232337 -0.4211167487232337 -0.4211167487232337 -0.4542881979535398 -0.4542881979535398 -0.4542881979535398 -0.4542881979535398 
-0.4856667792110594 -0.4856667792110594 -0.4856667792110594 -0.4856667792110594 -0.5151286555710788 -0.5151286555710788 -0.5151286555710788 -0.5151286555710788 -0.5425575544674557 
-0.5425575544674557 -0.5425575544674557 -0.5425575544674557 -0.5678452265673177 -0.5678452265673177 -0.5678452265673177 -0.5678452265673177 -0.5908918729817261 -0.5908918729817261 
-0.5908918729817261 -0.5908918729817261 -0.6116065391262936 -0.6116065391262936 -0.6116065391262936 -0.6116065391262936 -0.6299074736773795 -0.6299074736773795 -0.6299074736773795 
-0.6299074736773795 -0.6457224512072117 -0.6457224512072117 -0.6457224512072117 -0.6457224512072117 -0.6589890572246561 -0.6589890572246561 -0.6589890572246561 -0.6589890572246561 
-0.6696549344966974 -0.6696549344966974 -0.6696549344966974 -0.6696549344966974 -0.6776779896785184 -0.6776779896785184 -0.6776779896785184 -0.6776779896785184 -0.6830265594367023 
-0.6830265594367023 -0.6830265594367023 -0.6830265594367023 -0.6856795354099421 -0.6856795354099421 -0.6856795354099421 -0.6856795354099421 -0.6856264475141011 -0.6856264475141011 
-0.6856264475141011 -0.6856264475141011 -0.6828675052628508 -0.6828675052628508 -0.6828675052628508 -0.6828675052628508 -0.6774135969408155 -0.6774135969408155 -0.6774135969408155 
-0.6774135969408155 -0.6692862466324898 -0.6692862466324898 -0.6692862466324898 -0.6692862466324898 -0.6585175292765062 -0.6585175292765062 -0.6585175292765062 -0.6585175292765062 
-0.6451499440805101 -0.6451499440805101 -0.6451499440805101 -0.6451499440805101 -0.6292362467962014 -0.6292362467962014 -0.6292362467962014 -0.6292362467962014 -0.6108392415164847 
-0.6108392415164847 -0.6108392415164847 -0.6108392415164847 -0.5900315328164069 -0.5900315328164069 -0.5900315328164069 -0.5900315328164069 -0.5668952392160695 -0.5668952392160695 
-0.5668952392160695 -0.5668952392160695 -0.5415216690963452 -0.5415216690963452 -0.5415216690963452 -0.5415216690963452 -0.5140109603464148 -0.5140109603464148 -0.5140109603464148 
-0.5140109603464148 -0.4844716851652683 -0.4844716851652683 -0.4844716851652683 -0.4844716851652683 -0.4530204215768331 -0.4530204215768331 -0.4530204215768331 -0.4530204215768331 
-0.4197812933497787 -0.4197812933497787 -0.4197812933497787 -0.4197812933497787 -0.384885480137702 -0.384885480137702 -0.384885480137702 -0.384885480137702 -0.3484706997729732 
-0.3484706997729732 -0.3484706997729732 -0.3484706997729732 -0.3106806647573589 -0.3106806647573589 -0.3106806647573589 -0.3106806647573589 -0.271664515094443 -0.271664515094443 
-0.271664515094443 -0.271664515094443 -0.2315762297021597 -0.2315762297021597 -0.2315762297021597 -0.2315762297021597 -0.1905740187283578 -0.1905740187283578 -0.1905740187283578 
-0.1905740187283578 -0.1488196991676223 -0.1488196991676223 -0.1488196991676223 -0.1488196991676223 -0.1064780562435254 -0.1064780562435254 -0.1064780562435254 -0.1064780562435254 
-0.06371619307663232 -0.06371619307663232 -0.06371619307663232 -0.06371619307663232 -0.02070287120482543 -0.02070287120482543 -0.02070287120482543 -0.02070287120482543 0.02239215544138472 
0.02239215544138472 0.02239215544138472 0.02239215544138472 0.06539881048007047 0.06539881048007047 0.06539881048007047 0.06539881048007047 0.1081473662916654 0.1081473662916654 
0.1081473662916654 0.1081473662916654 0.1504691138563393 0.1504691138563393 0.1504691138563393 0.1504691138563393 0.1921970285714215 0.1921970285714215 0.1921970285714215 
0.1921970285714215 0.2331664294212021 0.2331664294212021 0.2331664294212021 0.2331664294212021 0.2732156288976673 0.2732156288976673 0.2732156288976673 0.2732156288976673 
0.31218657110722 0.31218657110722 0.31218657110722 0.31218657110722 0.3499254555450912 0.3499254555450912 0.3499254555450912 0.3499254555450912 0.3862833440756588 
0.3862833440756588 0.3862833440756588 0.3862833440756588 0.4211167487232343 0.4211167487232343 0.4211167487232343 0.4211167487232343 0.4542881979535396 0.4542881979535396 
0.4542881979535396 0.4542881979535396 0.4856667792110588 0.4856667792110588 0.4856667792110588 0.4856667792110588 0.5151286555710785 0.5151286555710785 0.5151286555710785 
0.5151286555710785 0.5425575544674547 0.5425575544674547 0.5425575544674547 0.5425575544674547 0.5678452265673173 0.5678452265673173 0.5678452265673173 0.5678452265673173 
0.5908918729817259 0.5908918729817259 0.5908918729817259 0.5908918729817259 0.6116065391262938 0.6116065391262938 0.6116065391262938 0.6116065391262938 0.6299074736773798 
0.6299074736773798 0.6299074736773798 0.6299074736773798 0.6457224512072119 0.6457224512072119 0.6457224512072119 0.6457224512072119 0.6211629498699138 0.6211629498699138 
0.6211629498699138 0.6211629498699138 0.6312166547084956 0.6312166547084956 0.6312166547084956 0.6312166547084956 0.6387792357864017 0.6387792357864017 0.6387792357864017 
0.6387792357864017 0.6438208470511326 0.6438208470511326 0.6438208470511326 0.6438208470511326 0.6463215915663192 0.6463215915663192 0.6463215915663192 0.6463215915663192 
0.6462716000358417 0.6462716000358417 0.6462716000358417 0.6462716000358417 0.6436710697534319 0.6436710697534319 0.6436710697534319 0.6436710697534319 0.6385302638240451 
0.6385302638240451 0.6385302638240451 0.6385302638240451 0.6308694706600737 0.6308694706600737 0.6308694706600737 0.6308694706600737 0.6207189239122524 0.6207189239122524 
0.6207189239122524 0.6207189239122524 0.6081186831512513 0.6081186831512513 0.6081186831512513 0.6081186831512513 0.5931184757708515 0.5931184757708515 0.5931184757708515 
0.5931184757708515 0.5757775007366407 0.5757775007366407 0.5757775007366407 0.5757775007366407 0.5561641949547411 0.5561641949547411 0.5561641949547411 0.5561641949547411 
0.5343559631826066 0.5343559631826066 0.5343559631826066 0.5343559631826066 0.5104388725478086 0.5104388725478086 0.5104388725478086 0.5104388725478086 0.4845073128804034 
0.4845073128804034 0.4845073128804034 0.4845073128804034 0.4566636241993952 0.4566636241993952 0.4566636241993952 0.4566636241993952 0.4270176928234367 0.4270176928234367 
0.4270176928234367 0.4270176928234367 0.3956865176997305 0.3956865176997305 0.3956865176997305 0.3956865176997305 0.3627937486626386 0.3627937486626386 0.3627937486626386 
0.3627937486626386 0.328469198444273 0.328469198444273 0.328469198444273 0.328469198444273 0.2928483303629504 0.2928483303629504 0.2928483303629504 0.2928483303629504 
0.2560717237113613 0.2560717237113613 0.2560717237113613 0.2560717237113613 0.2182845189543259 0.2182845189543259 0.2182845189543259 0.2182845189543259 0.1796358449256881 
0.1796358449256881 0.1796358449256881 0.1796358449256881 0.1402782302849404 0.1402782302849404 0.1402782302849404 0.1402782302849404 0.1003670015562848 0.1003670015562848 
0.1003670015562848 0.1003670015562848 0.06005967012580833 0.06005967012580833 0.06005967012580833 0.06005967012580833 0.01951531061599894 0.01951531061599894 0.01951531061599894 
0.01951531061599894 -0.02110606690911501 -0.02110606690911501 -0.02110606690911501 -0.02110606690911501 -0.06164414843058391 -0.06164414843058391 -0.06164414843058391 -0.06164414843058391 
-0.1019389486607294 -0.1019389486607294 -0.1019389486607294 -0.1019389486607294 -0.1418314424319864 -0.1418314424319864 -0.1418314424319864 -0.1418314424319864 -0.181164192296587 
-0.181164192296587 -0.181164192296587 -0.181164192296587 -0.2197819698602398 -0.2197819698602398 -0.2197819698602398 -0.2197819698602398 -0.2575323683976848 -0.2575323683976848 
-0.2575323683976848 -0.2575323683976848 -0.2942664043324122 -0.2942664043324122 -0.2942664043324122 -0.2942664043324122 -0.3298391052067718 -0.3298391052067718 -0.3298391052067718 
-0.3298391052067718 -0.3641100818220333 -0.3641100818220333 -0.3641100818220333 -0.3641100818220333 -0.3969440822904167 -0.3969440822904167 -0.3969440822904167 -0.3969440822904167 
-0.428211525812501 -0.428211525812501 -0.428211525812501 -0.428211525812501 -0.457789014073441 -0.457789014073441 -0.457789014073441 -0.457789014073441 -0.4855598182397395 
-0.4855598182397395 -0.4855598182397395 -0.4855598182397395 -0.5114143396346259 -0.5114143396346259 -0.5114143396346259 -0.5114143396346259 -0.5352505422739613 -0.5352505422739613 
-0.5352505422739613 -0.5352505422739613 -0.5569743555556539 -0.5569743555556539 -0.5569743555556539 -0.5569743555556539 -0.5765000455133472 -0.5765000455133472 -0.5765000455133472 
-0.5765000455133472 -0.5937505531692171 -0.5937505531692171 -0.5937505531692171 -0.5937505531692171 -0.6086577986505533 -0.6086577986505533 -0.6086577986505533 -0.6086577986505533 
-0.6211629498699138 -0.6211629498699138 -0.6211629498699138 -0.6211629498699138 -0.6312166547084954 -0.6312166547084954 -0.6312166547084954 -0.6312166547084954 -0.6387792357864017 
-0.6387792357864017 -0.6387792357864017 -0.6387792357864017 -0.6438208470511326 -0.6438208470511326 -0.6438208470511326 -0.6438208470511326 -0.6463215915663192 -0.6463215915663192 
-0.6463215915663192 -0.6463215915663192 -0.6462716000358416 -0.6462716000358416 -0.6462716000358416 -0.6462716000358416 -0.6436710697534318 -0.6436710697534318 -0.6436710697534318 
-0.6436710697534318 -0.6385302638240443 -0.6385302638240443 -0.6385302638240443 -0.6385302638240443 -0.6308694706600733 -0.6308694706600733 -0.6308694706600733 -0.6308694706600733 
-0.6207189239122523 -0.6207189239122523 -0.6207189239122523 -0.6207189239122523 -0.6081186831512512 -0.6081186831512512 -0.6081186831512512 -0.6081186831512512 -0.5931184757708514 
-0.5931184757708514 -0.5931184757708514 -0.5931184757708514 -0.575777500736641 -0.575777500736641 -0.575777500736641 -0.575777500736641 -0.556164194954741 -0.556164194954741 
-0.556164194954741 -0.556164194954741 -0.5343559631826065 -0.5343559631826065 -0.5343559631826065 -0.5343559631826065 -0.510438872547809 -0.510438872547809 -0.510438872547809 
-0.510438872547809 -0.4845073128804037 -0.4845073128804037 -0.4845073128804037 -0.4845073128804037 -0.4566636241993956 -0.4566636241993956 -0.4566636241993956 -0.4566636241993956 
-0.4270176928234372 -0.4270176928234372 -0.4270176928234372 -0.4270176928234372 -0.3956865176997311 -0.3956865176997311 -0.3956865176997311 -0.3956865176997311 -0.3627937486626386 
-0.3627937486626386 -0.3627937486626386 -0.3627937486626386 -0.3284691984442729 -0.3284691984442729 -0.3284691984442729 -0.3284691984442729 -0.2928483303629504 -0.2928483303629504 
-0.2928483303629504 -0.2928483303629504 -0.2560717237113613 -0.2560717237113613 -0.2560717237113613 -0.2560717237113613 -0.2182845189543257 -0.2182845189543257 -0.2182845189543257 
-0.2182845189543257 -0.1796358449256881 -0.1796358449256881 -0.1796358449256881 -0.1796358449256881 -0.1402782302849401 -0.1402782302849401 -0.1402782302849401 -0.1402782302849401 
-0.1003670015562847 -0.1003670015562847 -0.1003670015562847 -0.1003670015562847 -0.06005967012580846 -0.06005967012580846 -0.06005967012580846 -0.06005967012580846 -0.01951531061599849 
-0.01951531061599849 -0.01951531061599849 -0.01951531061599849 0.02110606690911546 0.02110606690911546 0.02110606690911546 0.02110606690911546 0.06164414843058404 0.06164414843058404 
0.06164414843058404 0.06164414843058404 0.1019389486607288 0.1019389486607288 0.1019389486607288 0.1019389486607288 0.1418314424319858 0.1418314424319858 0.1418314424319858 
0.1418314424319858 0.1811641922965869 0.1811641922965869 0.1811641922965869 0.1811641922965869 0.21978196986024 0.21978196986024 0.21978196986024 0.21978196986024 
0.2575323683976852 0.2575323683976852 0.2575323683976852 0.2575323683976852 0.2942664043324124 0.2942664043324124 0.2942664043324124 0.2942664043324124 0.3298391052067715 
0.3298391052067715 0.3298391052067715 0.3298391052067715 0.3641100818220331 0.3641100818220331 0.3641100818220331 0.3641100818220331 0.3969440822904168 0.3969440822904168 
0.3969440822904168 0.3969440822904168 0.4282115258125011 0.4282115258125011 0.4282115258125011 0.4282115258125011 0.4577890140734405 0.4577890140734405 0.4577890140734405 
0.4577890140734405 0.4855598182397391 0.4855598182397391 0.4855598182397391 0.4855598182397391 0.5114143396346255 0.5114143396346255 0.5114143396346255 0.5114143396346255 
0.5352505422739615 0.5352505422739615 0.5352505422739615 0.5352505422739615 0.556974355555654 0.556974355555654 0.556974355555654 0.556974355555654 0.5765000455133472 
0.5765000455133472 0.5765000455133472 0.5765000455133472 0.5937505531692171 0.5937505531692171 0.5937505531692171 0.5937505531692171 0.6086577986505534 0.6086577986505534 
0.6086577986505534 0.6086577986505534 0.5808853961343927 0.5808853961343927 0.5808853961343927 0.5808853961343927 0.5902872511596182 0.5902872511596182 0.5902872511596182 
0.5902872511596182 0.5973595120811098 0.5973595120811098 0.5973595120811098 0.5973595120811098 0.6020742679160188 0.6020742679160188 0.6020742679160188 0.6020742679160188 
0.6044129116770323 0.6044129116770323 0.6044129116770323 0.6044129116770323 0.6043662138056496 0.6043662138056496 0.6043662138056496 0.6043662138056496 0.6019343585970356 
0.6019343585970356 0.6019343585970356 0.6019343585970356 0.5971269434726894 0.5971269434726894 0.5971269434726894 0.5971269434726894 0.5899629411038075 0.5899629411038075 
0.5899629411038075 0.5899629411038075 0.5804706245348187 0.5804706245348187 0.5804706245348187 0.5804706245348187 0.5686874556025938 0.5686874556025938 0.5686874556025938 
0.5686874556025938 0.5546599370916907 0.5546599370916907 0.5546599370916907 0.5546599370916907 0.5384434292091081 0.5384434292091081 0.5384434292091081 0.5384434292091081 
0.5201019311028409 0.5201019311028409 0.5201019311028409 0.5201019311028409 0.4997078282864811 0.4997078282864811 0.4997078282864811 0.4997078282864811 0.4773416069666655 
0.4773416069666655 0.4773416069666655 0.4773416069666655 0.4530915364007895 0.4530915364007895 0.4530915364007895 0.4530915364007895 0.4270533205385719 0.4270533205385719 
0.4270533205385719 0.4270533205385719 0.3993297203222927 0.3993297203222927 0.3993297203222927 0.3993297203222927 0.3700301481362965 0.3700301481362965 0.3700301481362965 
0.3700301481362965 0.339270236006301 0.339270236006301 0.339270236006301 0.339270236006301 0.307171379252616 0.307171379252616 0.307171379252616 0.307171379252616 
0.273860257398275 0.273860257398275 0.273860257398275 0.273860257398275 0.2394683342228338 0.2394683342228338 0.2394683342228338 0.2394683342228338 0.2041313389348902 
0.2041313389348902 0.2041313389348902 0.2041313389348902 0.1679887305109084 0.1679887305109084 0.1679887305109084 0.1679887305109084 0.1311831473143512 0.1311831473143512 
0.1311831473143512 0.1311831473143512 0.09385984416722307 0.09385984416722307 0.09385984416722307 0.09385984416722307 0.05616611909565096 0.05616611909565096 0.05616611909565096 
0.05616611909565096 0.01825073201186803 0.01825073201186803 0.01825073201186803 0.01825073201186803 -0.01973668237320021 -0.01973668237320021 -0.01973668237320021 -0.01973668237320021 
-0.05764620508977431 -0.05764620508977431 -0.05764620508977431 -0.05764620508977431 -0.09532822457090463 -0.09532822457090463 -0.09532822457090463 -0.09532822457090463 -0.1326340271009766 
-0.1326340271009766 -0.1326340271009766 -0.1326340271009766 -0.169416383720804 -0.169416383720804 -0.169416383720804 -0.169416383720804 -0.2055301312730691 -0.2055301312730691 
-0.2055301312730691 -0.2055301312730691 -0.2408327452949846 -0.2408327452949846 -0.2408327452949846 -0.2408327452949846 -0.2751849024972362 -0.2751849024972362 -0.2751849024972362 
-0.2751849024972362 -0.3084510306093547 -0.3084510306093547 -0.3084510306093547 -0.3084510306093547 -0.3404998434215294 -0.3404998434215294 -0.3404998434215294 -0.3404998434215294 
-0.3712048589113008 -0.3712048589113008 -0.3712048589113008 -0.3712048589113008 -0.4004448984103176 -0.4004448984103176 -0.4004448984103176 -0.4004448984103176 -0.4281045648411811 
-0.4281045648411811 -0.4281045648411811 -0.4281045648411811 -0.4540746981369884 -0.4540746981369884 -0.4540746981369884 -0.4540746981369884 -0.4782528060462455 -0.4782528060462455 
-0.4782528060462455 -0.4782528060462455 -0.5005434686229625 -0.5005434686229625 -0.5005434686229625 -0.5005434686229625 -0.5208587148055825 -0.5208587148055825 -0.5208587148055825 
-0.5208587148055825 -0.5391183695985771 -0.5391183695985771 -0.5391183695985771 -0.5391183695985771 -0.5552503704865208 -0.5552503704865208 -0.5552503704865208 -0.5552503704865208 
-0.5691910518319188 -0.5691910518319188 -0.5691910518319188 -0.5691910518319188 -0.5808853961343927 -0.5808853961343927 -0.5808853961343927 -0.5808853961343927 -0.5902872511596182 
-0.5902872511596182 -0.5902872511596182 -0.5902872511596182 -0.5973595120811095 -0.5973595120811095 -0.5973595120811095 -0.5973595120811095 -0.6020742679160186 -0.6020742679160186 
-0.6020742679160186 -0.6020742679160186 -0.604412911677032 -0.604412911677032 -0.604412911677032 -0.604412911677032 -0.6043662138056496 -0.6043662138056496 -0.6043662138056496 
-0.6043662138056496 -0.6019343585970355 -0.6019343585970355 -0.6019343585970355 -0.6019343585970355 -0.5971269434726889 -0.5971269434726889 -0.5971269434726889 -0.5971269434726889 
-0.589962941103807 -0.589962941103807 -0.589962941103807 -0.589962941103807 -0.5804706245348183 -0.5804706245348183 -0.5804706245348183 -0.5804706245348183 -0.5686874556025938 
-0.5686874556025938 -0.5686874556025938 -0.5686874556025938 -0.5546599370916908 -0.5546599370916908 -0.5546599370916908 -0.5546599370916908 -0.5384434292091085 -0.5384434292091085 
-0.5384434292091085 -0.5384434292091085 -0.5201019311028406 -0.5201019311028406 -0.5201019311028406 -0.5201019311028406 -0.4997078282864814 -0.4997078282864814 -0.4997078282864814 
-0.4997078282864814 -0.4773416069666661 -0.4773416069666661 -0.4773416069666661 -0.4773416069666661 -0.4530915364007898 -0.4530915364007898 -0.4530915364007898 -0.4530915364007898 
-0.4270533205385723 -0.4270533205385723 -0.4270533205385723 -0.4270533205385723 -0.3993297203222929 -0.3993297203222929 -0.3993297203222929 -0.3993297203222929 -0.3700301481362965 
-0.3700301481362965 -0.3700301481362965 -0.3700301481362965 -0.339270236006301 -0.339270236006301 -0.339270236006301 -0.339270236006301 -0.3071713792526157 -0.3071713792526157 
-0.3071713792526157 -0.3071713792526157 -0.273860257398275 -0.273860257398275 -0.273860257398275 -0.273860257398275 -0.2394683342228336 -0.2394683342228336 -0.2394683342228336 
-0.2394683342228336 -0.2041313389348901 -0.2041313389348901 -0.2041313389348901 -0.2041313389348901 -0.1679887305109087 -0.1679887305109087 -0.1679887305109087 -0.1679887305109087 
-0.1311831473143509 -0.1311831473143509 -0.1311831473143509 -0.1311831473143509 -0.09385984416722316 -0.09385984416722316 -0.09385984416722316 -0.09385984416722316 -0.05616611909565092 