Title = RSC/Post/Linear_Advection_2D/Sine_Wave_2D/Quad100/
FileType = Solution
Variables = q
Zone T = RSC/Post/Linear_Advection_2D/Sine_Wave_2D/Quad100/
ZoneType = FETriangle
Nodes = 40000
Elements = 20000
DataPacking = Block
StrandID = 5
SolutionTime = 0.4
0.5132119287258743 0.5132119287258743 0.5132119287258743 0.5132119287258743 0.5536020323373331 0.5536020323373331 0.5536020323373331 0.5536020323373331 0.5918073216438673 0.5918073216438673 
0.5918073216438673 0.5918073216438673 0.6276770178229203 0.6276770178229203 0.6276770178229203 0.6276770178229203 0.6610695595709796 0.6610695595709796 0.6610695595709796 
0.6610695595709796 0.6918531617813658 0.6918531617813658 0.6918531617813658 0.6918531617813658 0.7199063356398444 0.7199063356398444 0.7199063356398444 0.7199063356398444 
0.7451183680854722 0.7451183680854722 0.7451183680854722 0.7451183680854722 0.7673897587444684 0.7673897587444684 0.7673897587444684 0.7673897587444684 0.7866326126127327 
0.7866326126127327 0.7866326126127327 0.7866326126127327 0.8027709869372706 0.8027709869372706 0.8027709869372706 0.8027709869372706 0.8157411909275452 0.8157411909275452 
0.8157411909275452 0.8157411909275452 0.825492037113929 0.825492037113929 0.825492037113929 0.825492037113929 0.8319850433612632 0.8319850433612632 0.8319850433612632 
0.8319850433612632 0.8351945847402613 0.8351945847402613 0.8351945847402613 0.8351945847402613 0.8351079946574003 0.8351079946574003 0.8351079946574003 0.8351079946574003 
0.8317256148441788 0.8317256148441788 0.8317256148441788 0.8317256148441788 0.825060794008456 0.825060794008456 0.825060794008456 0.825060794008456 0.815139835153204 
0.815139835153204 0.815139835153204 0.815139835153204 0.8020018917705682 0.8020018917705682 0.8020018917705682 0.8020018917705682 0.7856988133209264 0.7856988133209264 
0.7856988133209264 0.7856988133209264 0.7662949406067514 0.7662949406067514 0.7662949406067514 0.7662949406067514 0.7438668518488588 0.7438668518488588 0.7438668518488588 
0.7438668518488588 0.7185030604671574 0.7185030604671574 0.7185030604671574 0.7185030604671574 0.6903036657586168 0.6903036657586168 0.6903036657586168 0.6903036657586168 
0.6593799578510728 0.6593799578510728 0.6593799578510728 0.6593799578510728 0.6258539784919392 0.6258539784919392 0.6258539784919392 0.6258539784919392 0.5898580394051829 
0.5898580394051829 0.5898580394051829 0.5898580394051829 0.5515342001173994 0.5515342001173994 0.5515342001173994 0.5515342001173994 0.5110337073137614 0.5110337073137614 
0.5110337073137614 0.5110337073137614 0.4685163979364481 0.4685163979364481 0.4685163979364481 0.4685163979364481 0.4241500683812607 0.4241500683812607 0.4241500683812607 
0.4241500683812607 0.3781098122819074 0.3781098122819074 0.3781098122819074 0.3781098122819074 0.330577329495419 0.330577329495419 0.330577329495419 0.330577329495419 
0.2817402090158284 0.2817402090158284 0.2817402090158284 0.2817402090158284 0.23179118864611 0.23179118864611 0.23179118864611 0.23179118864611 0.1809273943501265 
0.1809273943501265 0.1809273943501265 0.1809273943501265 0.1293495622865071 0.1293495622865071 0.1293495622865071 0.1293495622865071 0.07726124659473668 0.07726124659473668 
0.07726124659473668 0.07726124659473668 0.02486801605996292 0.02486801605996292 0.02486801605996292 0.02486801605996292 -0.02762335717308338 -0.02762335717308338 -0.02762335717308338 
-0.02762335717308338 -0.08000571363527925 -0.08000571363527925 -0.08000571363527925 -0.08000571363527925 -0.1320723240968907 -0.1320723240968907 -0.1320723240968907 -0.1320723240968907 
-0.1836177054333969 -0.1836177054333969 -0.1836177054333969 -0.1836177054333969 -0.2344384315735076 -0.2344384315735076 -0.2344384315735076 -0.2344384315735076 -0.2843339363289289 
-0.2843339363289289 -0.2843339363289289 -0.2843339363289289 -0.3331073049374791 -0.3331073049374791 -0.3331073049374791 -0.3331073049374791 -0.380566051195693 -0.380566051195693 
-0.380566051195693 -0.380566051195693 -0.4265228771139281 -0.4265228771139281 -0.4265228771139281 -0.4265228771139281 -0.470796412095962 -0.470796412095962 -0.470796412095962 
-0.470796412095962 -0.5132119287258743 -0.5132119287258743 -0.5132119287258743 -0.5132119287258743 -0.5536020323373336 -0.5536020323373336 -0.5536020323373336 -0.5536020323373336 
-0.591807321643868 -0.591807321643868 -0.591807321643868 -0.591807321643868 -0.6276770178229214 -0.6276770178229214 -0.6276770178229214 -0.6276770178229214 -0.66106955957098 
-0.66106955957098 -0.66106955957098 -0.66106955957098 -0.6918531617813657 -0.6918531617813657 -0.6918531617813657 -0.6918531617813657 -0.7199063356398441 -0.7199063356398441 
-0.7199063356398441 -0.7199063356398441 -0.7451183680854709 -0.7451183680854709 -0.7451183680854709 -0.7451183680854709 -0.7673897587444696 -0.7673897587444696 -0.7673897587444696 
-0.7673897587444696 -0.7866326126127332 -0.7866326126127332 -0.7866326126127332 -0.7866326126127332 -0.8027709869372709 -0.8027709869372709 -0.8027709869372709 -0.8027709869372709 
-0.8157411909275454 -0.8157411909275454 -0.8157411909275454 -0.8157411909275454 -0.8254920371139295 -0.8254920371139295 -0.8254920371139295 -0.8254920371139295 -0.8319850433612636 
-0.8319850433612636 -0.8319850433612636 -0.8319850433612636 -0.8351945847402642 -0.8351945847402642 -0.8351945847402642 -0.8351945847402642 -0.8351079946574025 -0.8351079946574025 
-0.8351079946574025 -0.8351079946574025 -0.8317256148441793 -0.8317256148441793 -0.8317256148441793 -0.8317256148441793 -0.8250607940084558 -0.8250607940084558 -0.8250607940084558 
-0.8250607940084558 -0.8151398351532033 -0.8151398351532033 -0.8151398351532033 -0.8151398351532033 -0.8020018917705687 -0.8020018917705687 -0.8020018917705687 -0.8020018917705687 
-0.7856988133209258 -0.7856988133209258 -0.7856988133209258 -0.7856988133209258 -0.7662949406067505 -0.7662949406067505 -0.7662949406067505 -0.7662949406067505 -0.7438668518488578 
-0.7438668518488578 -0.7438668518488578 -0.7438668518488578 -0.7185030604671567 -0.7185030604671567 -0.7185030604671567 -0.7185030604671567 -0.6903036657586159 -0.6903036657586159 
-0.6903036657586159 -0.6903036657586159 -0.6593799578510725 -0.6593799578510725 -0.6593799578510725 -0.6593799578510725 -0.6258539784919388 -0.6258539784919388 -0.6258539784919388 
-0.6258539784919388 -0.5898580394051828 -0.5898580394051828 -0.5898580394051828 -0.5898580394051828 -0.5515342001173991 -0.5515342001173991 -0.5515342001173991 -0.5515342001173991 
-0.5110337073137602 -0.5110337073137602 -0.5110337073137602 -0.5110337073137602 -0.4685163979364469 -0.4685163979364469 -0.4685163979364469 -0.4685163979364469 -0.4241500683812601 
-0.4241500683812601 -0.4241500683812601 -0.4241500683812601 -0.3781098122819075 -0.3781098122819075 -0.3781098122819075 -0.3781098122819075 -0.330577329495419 -0.330577329495419 
-0.330577329495419 -0.330577329495419 -0.2817402090158279 -0.2817402090158279 -0.2817402090158279 -0.2817402090158279 -0.2317911886461101 -0.2317911886461101 -0.2317911886461101 
-0.2317911886461101 -0.1809273943501266 -0.1809273943501266 -0.1809273943501266 -0.1809273943501266 -0.1293495622865075 -0.1293495622865075 -0.1293495622865075 -0.1293495622865075 
-0.077261246594737 -0.077261246594737 -0.077261246594737 -0.077261246594737 -0.02486801605996353 -0.02486801605996353 -0.02486801605996353 -0.02486801605996353 0.02762335717308363 
0.02762335717308363 0.02762335717308363 0.02762335717308363 0.08000571363527956 0.08000571363527956 0.08000571363527956 0.08000571363527956 0.1320723240968906 0.1320723240968906 
0.1320723240968906 0.1320723240968906 0.1836177054333974 0.1836177054333974 0.1836177054333974 0.1836177054333974 0.2344384315735081 0.2344384315735081 0.2344384315735081 
0.2344384315735081 0.284333936328929 0.284333936328929 0.284333936328929 0.284333936328929 0.3331073049374792 0.3331073049374792 0.3331073049374792 0.3331073049374792 
0.3805660511956931 0.3805660511956931 0.3805660511956931 0.3805660511956931 0.4265228771139283 0.4265228771139283 0.4265228771139283 0.4265228771139283 0.470796412095962 
0.470796412095962 0.470796412095962 0.470796412095962 0.5005667884550244 0.5005667884550244 0.5005667884550244 0.5005667884550244 0.5399617940045568 0.5399617940045568 
0.5399617940045568 0.5399617940045568 0.5772258170382318 0.5772258170382318 0.5772258170382318 0.5772258170382318 0.6122117934814483 0.6122117934814483 0.6122117934814483 
0.6122117934814483 0.644781649668757 0.644781649668757 0.644781649668757 0.644781649668757 0.6748068472575391 0.6748068472575391 0.6748068472575391 0.6748068472575391 
0.7021688905101193 0.7021688905101193 0.7021688905101193 0.7021688905101193 0.7267597939423078 0.7267597939423078 0.7267597939423078 0.7267597939423078 0.7484825084927731 
0.7484825084927731 0.7484825084927731 0.7484825084927731 0.7672513045313489 0.7672513045313489 0.7672513045313489 0.7672513045313489 0.782992110194718 0.782992110194718 
0.782992110194718 0.782992110194718 0.7956428037142171 0.7956428037142171 0.7956428037142171 0.7956428037142171 0.8051534585820771 0.8051534585820771 0.8051534585820771 
0.8051534585820771 0.8114865405885399 0.8114865405885399 0.8114865405885399 0.8114865405885399 0.814617055952235 0.814617055952235 0.814617055952235 0.814617055952235 
0.8145326499592189 0.8145326499592189 0.8145326499592189 0.8145326499592189 0.8112336557213848 0.8112336557213848 0.8112336557213848 0.8112336557213848 0.8047330928618222 
0.8047330928618222 0.8047330928618222 0.8047330928618222 0.7950566161323125 0.7950566161323125 0.7950566161323125 0.7950566161323125 0.7822424141657455 0.7822424141657455 
0.7822424141657455 0.7822424141657455 0.7663410587630316 0.7663410587630316 0.7663410587630316 0.7663410587630316 0.747415305309307 0.747415305309307 0.747415305309307 
0.747415305309307 0.725539845107099 0.725539845107099 0.725539845107099 0.725539845107099 0.700801010603879 0.700801010603879 0.700801010603879 0.700801010603879 
0.6732964346773327 0.6732964346773327 0.6732964346773327 0.6732964346773327 0.6431346653229966 0.6431346653229966 0.6431346653229966 0.6431346653229966 0.610434737264911 
0.610434737264911 0.610434737264911 0.610434737264911 0.5753257021799443 0.5753257021799443 0.5753257021799443 0.5753257021799443 0.537946119389785 0.537946119389785 
0.537946119389785 0.537946119389785 0.4984435090305993 0.4984435090305993 0.4984435090305993 0.4984435090305993 0.4569737698584476 0.4569737698584476 0.4569737698584476 
0.4569737698584476 0.4137005639881209 0.4137005639881209 0.4137005639881209 0.4137005639881209 0.3687946709935433 0.3687946709935433 0.3687946709935433 0.3687946709935433 
0.322433313918812 0.322433313918812 0.322433313918812 0.322433313918812 0.2747994598598131 0.2747994598598131 0.2747994598598131 0.2747994598598131 0.2260810978766786 
0.2260810978766786 0.2260810978766786 0.2260810978766786 0.1764704970868539 0.1764704970868539 0.1764704970868539 0.1764704970868539 0.1261634478667285 0.1261634478667285 
0.1261634478667285 0.1261634478667285 0.07535848915646949 0.07535848915646949 0.07535848915646949 0.07535848915646949 0.02425612491752902 0.02425612491752902 0.02425612491752902 
0.02425612491752902 -0.02694196716489131 -0.02694196716489131 -0.02694196716489131 -0.02694196716489131 -0.07803373161152607 -0.07803373161152607 -0.07803373161152607 -0.07803373161152607 
-0.128817532569711 -0.128817532569711 -0.128817532569711 -0.128817532569711 -0.1790929495779763 -0.1790929495779763 -0.1790929495779763 -0.1790929495779763 -0.2286615685340432 
-0.2286615685340432 -0.2286615685340432 -0.2286615685340432 -0.2773277647446395 -0.2773277647446395 -0.2773277647446395 -0.2773277647446395 -0.3248994749667921 -0.3248994749667921 
-0.3248994749667921 -0.3248994749667921 -0.3711889553937019 -0.3711889553937019 -0.3711889553937019 -0.3711889553937019 -0.4160135225937763 -0.4160135225937763 -0.4160135225937763 
-0.4160135225937763 -0.4591962744786728 -0.4591962744786728 -0.4591962744786728 -0.4591962744786728 -0.5005667884550247 -0.5005667884550247 -0.5005667884550247 -0.5005667884550247 
-0.5399617940045573 -0.5399617940045573 -0.5399617940045573 -0.5399617940045573 -0.5772258170382315 -0.5772258170382315 -0.5772258170382315 -0.5772258170382315 -0.6122117934814484 
-0.6122117934814484 -0.6122117934814484 -0.6122117934814484 -0.6447816496687571 -0.6447816496687571 -0.6447816496687571 -0.6447816496687571 -0.6748068472575388 -0.6748068472575388 
-0.6748068472575388 -0.6748068472575388 -0.702168890510119 -0.702168890510119 -0.702168890510119 -0.702168890510119 -0.7267597939423071 -0.7267597939423071 -0.7267597939423071 
-0.7267597939423071 -0.748482508492773 -0.748482508492773 -0.748482508492773 -0.748482508492773 -0.7672513045313489 -0.7672513045313489 -0.7672513045313489 -0.7672513045313489 
-0.7829921101947181 -0.7829921101947181 -0.7829921101947181 -0.7829921101947181 -0.7956428037142174 -0.7956428037142174 -0.7956428037142174 -0.7956428037142174 -0.8051534585820775 
-0.8051534585820775 -0.8051534585820775 -0.8051534585820775 -0.8114865405885399 -0.8114865405885399 -0.8114865405885399 -0.8114865405885399 -0.8146170559522361 -0.8146170559522361 
-0.8146170559522361 -0.8146170559522361 -0.8145326499592201 -0.8145326499592201 -0.8145326499592201 -0.8145326499592201 -0.8112336557213858 -0.8112336557213858 -0.8112336557213858 
-0.8112336557213858 -0.8047330928618225 -0.8047330928618225 -0.8047330928618225 -0.8047330928618225 -0.7950566161323125 -0.7950566161323125 -0.7950566161323125 -0.7950566161323125 
-0.7822424141657456 -0.7822424141657456 -0.7822424141657456 -0.7822424141657456 -0.766341058763031 -0.766341058763031 -0.766341058763031 -0.766341058763031 -0.7474153053093064 
-0.7474153053093064 -0.7474153053093064 -0.7474153053093064 -0.7255398451070985 -0.7255398451070985 -0.7255398451070985 -0.7255398451070985 -0.700801010603879 -0.700801010603879 
-0.700801010603879 -0.700801010603879 -0.6732964346773326 -0.6732964346773326 -0.6732964346773326 -0.6732964346773326 -0.6431346653229966 -0.6431346653229966 -0.6431346653229966 
-0.6431346653229966 -0.6104347372649106 -0.6104347372649106 -0.6104347372649106 -0.6104347372649106 -0.5753257021799437 -0.5753257021799437 -0.5753257021799437 -0.5753257021799437 
-0.5379461193897843 -0.5379461193897843 -0.5379461193897843 -0.5379461193897843 -0.4984435090305981 -0.4984435090305981 -0.4984435090305981 -0.4984435090305981 -0.4569737698584465 
-0.4569737698584465 -0.4569737698584465 -0.4569737698584465 -0.4137005639881204 -0.4137005639881204 -0.4137005639881204 -0.4137005639881204 -0.3687946709935433 -0.3687946709935433 
-0.3687946709935433 -0.3687946709935433 -0.3224333139188129 -0.3224333139188129 -0.3224333139188129 -0.3224333139188129 -0.274799459859814 -0.274799459859814 -0.274799459859814 
-0.274799459859814 -0.2260810978766797 -0.2260810978766797 -0.2260810978766797 -0.2260810978766797 -0.1764704970868538 -0.1764704970868538 -0.1764704970868538 -0.1764704970868538 
-0.1261634478667288 -0.1261634478667288 -0.1261634478667288 -0.1261634478667288 -0.07535848915646924 -0.07535848915646924 -0.07535848915646924 -0.07535848915646924 -0.02425612491752944 
-0.02425612491752944 -0.02425612491752944 -0.02425612491752944 0.02694196716489243 0.02694196716489243 0.02694196716489243 0.02694196716489243 0.07803373161152617 0.07803373161152617 
0.07803373161152617 0.07803373161152617 0.1288175325697106 0.1288175325697106 0.1288175325697106 0.1288175325697106 0.179092949577976 0.179092949577976 0.179092949577976 
0.179092949577976 0.2286615685340417 0.2286615685340417 0.2286615685340417 0.2286615685340417 0.2773277647446384 0.2773277647446384 0.2773277647446384 0.2773277647446384 
0.3248994749667917 0.3248994749667917 0.3248994749667917 0.3248994749667917 0.3711889553937021 0.3711889553937021 0.3711889553937021 0.3711889553937021 0.4160135225937764 
0.4160135225937764 0.4160135225937764 0.4160135225937764 0.4591962744786729 0.4591962744786729 0.4591962744786729 0.4591962744786729 0.4859461397573556 0.4859461397573556 
0.4859461397573556 0.4859461397573556 0.5241905731559232 0.5241905731559232 0.5241905731559232 0.5241905731559232 0.5603662658421378 0.5603662658421378 0.5603662658421378 
0.5603662658421378 0.5943304488840685 0.5943304488840685 0.5943304488840685 0.5943304488840685 0.625949081168008 0.625949081168008 0.625949081168008 0.625949081168008 
0.6550973783975111 0.6550973783975111 0.6550973783975111 0.6550973783975111 0.681660305560003 0.681660305560003 0.681660305560003 0.681660305560003 0.7055330309174206 
0.7055330309174206 0.7055330309174206 0.7055330309174206 0.7266213397291882 0.7266213397291882 0.7266213397291882 0.7266213397291882 0.7448420060747584 0.7448420060747584 
0.7448420060747584 0.7448420060747584 0.7601231213082953 0.7601231213082953 0.7601231213082953 0.7601231213082953 0.77240437784925 0.77240437784925 0.77240437784925 
0.77240437784925 0.7816373071888277 0.7816373071888277 0.7816373071888277 0.7816373071888277 0.7877854711730491 0.7877854711730491 0.7877854711730491 0.7877854711730491 
0.7908246058074975 0.7908246058074975 0.7908246058074975 0.7908246058074975 0.7907427170162193 0.7907427170162193 0.7907427170162193 0.7907427170162193 0.7875401279768628 
0.7875401279768628 0.7875401279768628 0.7875401279768628 0.7812294778452415 0.7812294778452415 0.7812294778452415 0.7812294778452415 0.7718356718743641 0.7718356718743641 
0.7718356718743641 0.7718356718743641 0.7593957831247754 0.7593957831247754 0.7593957831247754 0.7593957831247754 0.7439589061541256 0.7439589061541256 0.7439589061541256 
0.7439589061541256 0.7255859632633788 0.7255859632633788 0.7255859632633788 0.7255859632633788 0.7043494640643267 0.7043494640643267 0.7043494640643267 0.7043494640643267 
0.6803332193172743 0.6803332193172743 0.6803332193172743 0.6803332193172743 0.6536320101682591 0.6536320101682591 0.6536320101682591 0.6536320101682591 0.6243512140911703 
0.6243512140911703 0.6243512140911703 0.6243512140911703 0.5926063890110016 0.5926063890110016 0.5926063890110016 0.5926063890110016 0.5585228172495122 0.5585228172495122 
0.5585228172495122 0.5585228172495122 0.5222350110931431 0.5222350110931431 0.5222350110931431 0.5222350110931431 0.4838861819344716 0.4838861819344716 0.4838861819344716 
0.4838861819344716 0.4436276750822726 0.4436276750822726 0.4436276750822726 0.4436276750822726 0.4016183724707294 0.4016183724707294 0.4016183724707294 0.4016183724707294 
0.3580240656250259 0.3580240656250259 0.3580240656250259 0.3580240656250259 0.3130168013579377 0.3130168013579377 0.3130168013579377 0.3130168013579377 0.2667742027796633 
0.2667742027796633 0.2667742027796633 0.2667742027796633 0.2194787683005575 0.2194787683005575 0.2194787683005575 0.2194787683005575 0.171317151393281 0.171317151393281 
0.171317151393281 0.171317151393281 0.1224794239568165 0.1224794239568165 0.1224794239568165 0.1224794239568165 0.0731583261895206 0.0731583261895206 0.0731583261895206 
0.0731583261895206 0.02354850593161536 0.02354850593161536 0.02354850593161536 0.02354850593161536 -0.02615424952091338 -0.02615424952091338 -0.02615424952091338 -0.02615424952091338 
-0.07575378609932309 -0.07575378609932309 -0.07575378609932309 -0.07575378609932309 -0.1250543570926115 -0.1250543570926115 -0.1250543570926115 -0.1250543570926115 -0.1738613956703568 
-0.1738613956703568 -0.1738613956703568 -0.1738613956703568 -0.2219822827491074 -0.2219822827491074 -0.2219822827491074 -0.2219822827491074 -0.2692271071719058 -0.2692271071719058 
-0.2692271071719058 -0.2692271071719058 -0.3154094152008616 -0.3154094152008616 -0.3154094152008616 -0.3154094152008616 -0.3603469463648753 -0.3603469463648753 -0.3603469463648753 
-0.3603469463648753 -0.4038623527584469 -0.4038623527584469 -0.4038623527584469 -0.4038623527584469 -0.4457838989528392 -0.4457838989528392 -0.4457838989528392 -0.4457838989528392 
-0.4859461397573556 -0.4859461397573556 -0.4859461397573556 -0.4859461397573556 -0.5241905731559235 -0.5241905731559235 -0.5241905731559235 -0.5241905731559235 -0.5603662658421376 
-0.5603662658421376 -0.5603662658421376 -0.5603662658421376 -0.5943304488840686 -0.5943304488840686 -0.5943304488840686 -0.5943304488840686 -0.6259490811680084 -0.6259490811680084 
-0.6259490811680084 -0.6259490811680084 -0.6550973783975117 -0.6550973783975117 -0.6550973783975117 -0.6550973783975117 -0.681660305560003 -0.681660305560003 -0.681660305560003 
-0.681660305560003 -0.7055330309174201 -0.7055330309174201 -0.7055330309174201 -0.7055330309174201 -0.7266213397291881 -0.7266213397291881 -0.7266213397291881 -0.7266213397291881 
-0.7448420060747579 -0.7448420060747579 -0.7448420060747579 -0.7448420060747579 -0.7601231213082951 -0.7601231213082951 -0.7601231213082951 -0.7601231213082951 -0.77240437784925 
-0.77240437784925 -0.77240437784925 -0.77240437784925 -0.7816373071888277 -0.7816373071888277 -0.7816373071888277 -0.7816373071888277 -0.7877854711730488 -0.7877854711730488 
-0.7877854711730488 -0.7877854711730488 -0.7908246058074978 -0.7908246058074978 -0.7908246058074978 -0.7908246058074978 -0.7907427170162202 -0.7907427170162202 -0.7907427170162202 
-0.7907427170162202 -0.7875401279768635 -0.7875401279768635 -0.7875401279768635 -0.7875401279768635 -0.7812294778452423 -0.7812294778452423 -0.7812294778452423 -0.7812294778452423 
-0.771835671874365 -0.771835671874365 -0.771835671874365 -0.771835671874365 -0.7593957831247757 -0.7593957831247757 -0.7593957831247757 -0.7593957831247757 -0.7439589061541256 
-0.7439589061541256 -0.7439589061541256 -0.7439589061541256 -0.7255859632633787 -0.7255859632633787 -0.7255859632633787 -0.7255859632633787 -0.7043494640643267 -0.7043494640643267 
-0.7043494640643267 -0.7043494640643267 -0.680333219317274 -0.680333219317274 -0.680333219317274 -0.680333219317274 -0.6536320101682587 -0.6536320101682587 -0.6536320101682587 
-0.6536320101682587 -0.6243512140911701 -0.6243512140911701 -0.6243512140911701 -0.6243512140911701 -0.5926063890110012 -0.5926063890110012 -0.5926063890110012 -0.5926063890110012 
-0.558522817249512 -0.558522817249512 -0.558522817249512 -0.558522817249512 -0.5222350110931431 -0.5222350110931431 -0.5222350110931431 -0.5222350110931431 -0.4838861819344709 
-0.4838861819344709 -0.4838861819344709 -0.4838861819344709 -0.4436276750822717 -0.4436276750822717 -0.4436276750822717 -0.4436276750822717 -0.4016183724707287 -0.4016183724707287 
-0.4016183724707287 -0.4016183724707287 -0.3580240656250261 -0.3580240656250261 -0.3580240656250261 -0.3580240656250261 -0.3130168013579381 -0.3130168013579381 -0.3130168013579381 
-0.3130168013579381 -0.266774202779663 -0.266774202779663 -0.266774202779663 -0.266774202779663 -0.219478768300557 -0.219478768300557 -0.219478768300557 -0.219478768300557 
-0.1713171513932805 -0.1713171513932805 -0.1713171513932805 -0.1713171513932805 -0.1224794239568162 -0.1224794239568162 -0.1224794239568162 -0.1224794239568162 -0.07315832618952112 
-0.07315832618952112 -0.07315832618952112 -0.07315832618952112 -0.02354850593161548 -0.02354850593161548 -0.02354850593161548 -0.02354850593161548 0.02615424952091367 0.02615424952091367 
0.02615424952091367 0.02615424952091367 0.07575378609932348 0.07575378609932348 0.07575378609932348 0.07575378609932348 0.1250543570926112 0.1250543570926112 0.1250543570926112 
0.1250543570926112 0.1738613956703566 0.1738613956703566 0.1738613956703566 0.1738613956703566 0.2219822827491074 0.2219822827491074 0.2219822827491074 0.2219822827491074 
0.2692271071719062 0.2692271071719062 0.2692271071719062 0.2692271071719062 0.3154094152008618 0.3154094152008618 0.3154094152008618 0.3154094152008618 0.3603469463648757 
0.3603469463648757 0.3603469463648757 0.3603469463648757 0.4038623527584469 0.4038623527584469 0.4038623527584469 0.4038623527584469 0.4457838989528392 0.4457838989528392 
0.4457838989528392 0.4457838989528392 0.4694076836537376 0.4694076836537376 0.4694076836537376 0.4694076836537376 0.5063506115949362 0.5063506115949362 0.5063506115949362 
0.5063506115949362 0.5412952050017599 0.5412952050017599 0.5412952050017599 0.5412952050017599 0.5741035535286976 0.5741035535286976 0.5741035535286976 0.5741035535286976 
0.6046461776128222 0.6046461776128222 0.6046461776128222 0.6046461776128222 0.6328025394704719 0.6328025394704719 0.6328025394704719 0.6328025394704719 0.6584615188048122 
0.6584615188048122 0.6584615188048122 0.6584615188048122 0.6815218513468834 0.6815218513468834 0.6815218513468834 0.6815218513468834 0.7018925284994056 0.7018925284994056 
0.7018925284994056 0.7018925284994056 0.7194931565061344 0.7194931565061344 0.7194931565061344 0.7194931565061344 0.7342542737292903 0.7342542737292903 0.7342542737292903 
0.7342542737292903 0.7461176247829056 0.7461176247829056 0.7461176247829056 0.7461176247829056 0.7550363904402215 0.7550363904402215 0.7550363904402215 0.7550363904402215 
0.7609753724077852 0.7609753724077852 0.7609753724077852 0.7609753724077852 0.7639111322370333 0.7639111322370333 0.7639111322370333 0.7639111322370333 0.763832083825141 
0.763832083825141 0.763832083825141 0.763832083825141 0.7607385391400763 0.7607385391400763 0.7607385391400763 0.7607385391400763 0.7546427069894049 0.7546427069894049 
0.7546427069894049 0.7546427069894049 0.745568644837705 0.745568644837705 0.745568644837705 0.745568644837705 0.733552163862744 0.733552163862744 0.733552163862744 
0.733552163862744 0.7186406876251226 0.7186406876251226 0.7186406876251226 0.7186406876251226 0.7008930649091452 0.7008930649091452 0.7008930649091452 0.7008930649091452 
0.6803793374735541 0.6803793374735541 0.6803793374735541 0.6803793374735541 0.657180463628707 0.657180463628707 0.657180463628707 0.657180463628707 0.631387998731112 
0.631387998731112 0.631387998731112 0.631387998731112 0.6031037338562638 0.6031037338562638 0.6031037338562638 0.6031037338562638 0.5724392940757722 0.5724392940757722 
0.5724392940757722 0.5724392940757722 0.5395156979242004 0.5395156979242004 0.5395156979242004 0.5395156979242004 0.5044628797941988 0.5044628797941988 0.5044628797941988 
0.5044628797941988 0.4674191771448174 0.4674191771448174 0.4674191771448174 0.4674191771448174 0.4285307845467541 0.4285307845467541 0.4285307845467541 0.4285307845467541 
0.3879511767191773 0.3879511767191773 0.3879511767191773 0.3879511767191773 0.3458405028351238 0.3458405028351238 0.3458405028351238 0.3458405028351238 0.3023649544858767 
0.3023649544858767 0.3023649544858767 0.3023649544858767 0.2576961097986818 0.2576961097986818 0.2576961097986818 0.2576961097986818 0.2120102562962653 0.2120102562962653 
0.2120102562962653 0.2120102562962653 0.16548769517052 0.16548769517052 0.16548769517052 0.16548769517052 0.1183120297160734 0.1183120297160734 0.1183120297160734 
0.1183120297160734 0.07066944073196189 0.07066944073196189 0.07066944073196189 0.07066944073196189 0.02274795175107814 0.02274795175107814 0.02274795175107814 0.02274795175107814 
-0.02526331300281656 -0.02526331300281656 -0.02526331300281656 -0.02526331300281656 -0.07317487500199882 -0.07317487500199882 -0.07317487500199882 -0.07317487500199882 -0.1207976491999685 
-0.1207976491999685 -0.1207976491999685 -0.1207976491999685 -0.1679436902637427 -0.1679436902637427 -0.1679436902637427 -0.1679436902637427 -0.2144269343082198 -0.2144269343082198 
-0.2144269343082198 -0.2144269343082198 -0.2600639332053311 -0.2600639332053311 -0.2600639332053311 -0.2600639332053311 -0.3046745785699891 -0.3046745785699891 -0.3046745785699891 
-0.3046745785699891 -0.3480828125656066 -0.3480828125656066 -0.3480828125656066 -0.3480828125656066 -0.3901173227239381 -0.3901173227239381 -0.3901173227239381 -0.3901173227239381 
-0.4306122180371292 -0.4306122180371292 -0.4306122180371292 -0.4306122180371292 -0.4694076836537376 -0.4694076836537376 -0.4694076836537376 -0.4694076836537376 -0.5063506115949366 
-0.5063506115949366 -0.5063506115949366 -0.5063506115949366 -0.5412952050017599 -0.5412952050017599 -0.5412952050017599 -0.5412952050017599 -0.5741035535286979 -0.5741035535286979 
-0.5741035535286979 -0.5741035535286979 -0.6046461776128227 -0.6046461776128227 -0.6046461776128227 -0.6046461776128227 -0.6328025394704724 -0.6328025394704724 -0.6328025394704724 
-0.6328025394704724 -0.6584615188048124 -0.6584615188048124 -0.6584615188048124 -0.6584615188048124 -0.6815218513468839 -0.6815218513468839 -0.6815218513468839 -0.6815218513468839 
-0.7018925284994051 -0.7018925284994051 -0.7018925284994051 -0.7018925284994051 -0.7194931565061343 -0.7194931565061343 -0.7194931565061343 -0.7194931565061343 -0.7342542737292901 
-0.7342542737292901 -0.7342542737292901 -0.7342542737292901 -0.7461176247829054 -0.7461176247829054 -0.7461176247829054 -0.7461176247829054 -0.7550363904402212 -0.7550363904402212 
-0.7550363904402212 -0.7550363904402212 -0.760975372407785 -0.760975372407785 -0.760975372407785 -0.760975372407785 -0.7639111322370336 -0.7639111322370336 -0.7639111322370336 
-0.7639111322370336 -0.7638320838251413 -0.7638320838251413 -0.7638320838251413 -0.7638320838251413 -0.7607385391400769 -0.7607385391400769 -0.7607385391400769 -0.7607385391400769 
-0.7546427069894055 -0.7546427069894055 -0.7546427069894055 -0.7546427069894055 -0.7455686448377052 -0.7455686448377052 -0.7455686448377052 -0.7455686448377052 -0.7335521638627444 
-0.7335521638627444 -0.7335521638627444 -0.7335521638627444 -0.718640687625123 -0.718640687625123 -0.718640687625123 -0.718640687625123 -0.7008930649091452 -0.7008930649091452 
-0.7008930649091452 -0.7008930649091452 -0.6803793374735539 -0.6803793374735539 -0.6803793374735539 -0.6803793374735539 -0.6571804636287065 -0.6571804636287065 -0.6571804636287065 
-0.6571804636287065 -0.6313879987311116 -0.6313879987311116 -0.6313879987311116 -0.6313879987311116 -0.6031037338562638 -0.6031037338562638 -0.6031037338562638 -0.6031037338562638 
-0.5724392940757719 -0.5724392940757719 -0.5724392940757719 -0.5724392940757719 -0.5395156979242004 -0.5395156979242004 -0.5395156979242004 -0.5395156979242004 -0.5044628797941983 
-0.5044628797941983 -0.5044628797941983 -0.5044628797941983 -0.4674191771448165 -0.4674191771448165 -0.4674191771448165 -0.4674191771448165 -0.4285307845467532 -0.4285307845467532 