Title = RSC/Post/Linear_Advection_2D/Sine_Wave_2D/Quad100/
FileType = Solution
Variables = q
Zone T = RSC/Post/Linear_Advection_2D/Sine_Wave_2D/Quad100/
ZoneType = FETriangle
Nodes = 40000
Elements = 20000
DataPacking = Block
StrandID = 21
SolutionTime = 2
0.0008178211953339435 0.0008178211953339435 0.0008178211953339435 0.0008178211953339435 0.002049874434691979 0.002049874434691979 0.002049874434691979 0.002049874434691979 0.003273837756154832 0.003273837756154832 
0.003273837756154832 0.003273837756154832 0.004484880735668341 0.004484880735668341 0.004484880735668341 0.004484880735668341 0.005678223939865267 0.005678223939865267 0.005678223939865267 
0.005678223939865267 0.00684915778830533 0.00684915778830533 0.00684915778830533 0.00684915778830533 0.007993061140037498 0.007993061140037498 0.007993061140037498 0.007993061140037498 
0.00910541953113222 0.00910541953113222 0.00910541953113222 0.00910541953113222 0.01018184299120805 0.01018184299120805 0.01018184299120805 0.01018184299120805 0.01121808336863918 
0.01121808336863918 0.01121808336863918 0.01121808336863918 0.01221005109606907 0.01221005109606907 0.01221005109606907 0.01221005109606907 0.01315383133006451 0.01315383133006451 
0.01315383133006451 0.01315383133006451 0.01404569940121414 0.01404569940121414 0.01404569940121414 0.01404569940121414 0.01488213551369676 0.01488213551369676 0.01488213551369676 
0.01488213551369676 0.01565983863630785 0.01565983863630785 0.01565983863630785 0.01565983863630785 0.01637573953012118 0.01637573953012118 0.01637573953012118 0.01637573953012118 
0.01702701286137286 0.01702701286137286 0.01702701286137286 0.01702701286137286 0.01761108835176297 0.01761108835176297 0.01761108835176297 0.01761108835176297 0.01812566092216961 
0.01812566092216961 0.01812566092216961 0.01812566092216961 0.01856869978974323 0.01856869978974323 0.01856869978974323 0.01856869978974323 0.01893845648247871 0.01893845648247871 
0.01893845648247871 0.01893845648247871 0.01923347173963561 0.01923347173963561 0.01923347173963561 0.01923347173963561 0.01945258127077359 0.01945258127077359 0.01945258127077359 
0.01945258127077359 0.01959492035067487 0.01959492035067487 0.01959492035067487 0.01959492035067487 0.01965992723201961 0.01965992723201961 0.01965992723201961 0.01965992723201961 
0.01964734536234601 0.01964734536234601 0.01964734536234601 0.01964734536234601 0.01955722439654541 0.01955722439654541 0.01955722439654541 0.01955722439654541 0.01938992000089758 
0.01938992000089758 0.01938992000089758 0.01938992000089758 0.01914609244941808 0.01914609244941808 0.01914609244941808 0.01914609244941808 0.01882670401805834 0.01882670401805834 
0.01882670401805834 0.01882670401805834 0.01843301518704224 0.01843301518704224 0.01843301518704224 0.01843301518704224 0.01796657966632647 0.01796657966632647 0.01796657966632647 
0.01796657966632647 0.01742923826381706 0.01742923826381706 0.01742923826381706 0.01742923826381706 0.01682311162054211 0.01682311162054211 0.01682311162054211 0.01682311162054211 
0.01615059184144944 0.01615059184144944 0.01615059184144944 0.01615059184144944 0.01541433305486212 0.01541433305486212 0.01541433305486212 0.01541433305486212 0.01461724093784615 
0.01461724093784615 0.01461724093784615 0.01461724093784615 0.01376246124883068 0.01376246124883068 0.01376246124883068 0.01376246124883068 0.01285336741273655 0.01285336741273655 
0.01285336741273655 0.01285336741273655 0.01189354720760937 0.01189354720760937 0.01189354720760937 0.01189354720760937 0.01088678860529862 0.01088678860529862 0.01088678860529862 
0.01088678860529862 0.009837064822063356 0.009837064822063356 0.009837064822063356 0.009837064822063356 0.00874851863810284 0.00874851863810284 0.00874851863810284 0.00874851863810284 
0.00762544604789572 0.00762544604789572 0.00762544604789572 0.00762544604789572 0.006472279305872446 0.006472279305872446 0.006472279305872446 0.006472279305872446 0.005293569434332054 
0.005293569434332054 0.005293569434332054 0.005293569434332054 0.00409396826263618 0.00409396826263618 0.00409396826263618 0.00409396826263618 0.002878210068563857 0.002878210068563857 
0.002878210068563857 0.002878210068563857 0.001651092894280028 0.001651092894280028 0.001651092894280028 0.001651092894280028 0.0004174596106550708 0.0004174596106550708 0.0004174596106550708 
0.0004174596106550708 -0.000817821195333986 -0.000817821195333986 -0.000817821195333986 -0.000817821195333986 -0.002049874434692056 -0.002049874434692056 -0.002049874434692056 -0.002049874434692056 
-0.003273837756154879 -0.003273837756154879 -0.003273837756154879 -0.003273837756154879 -0.004484880735668436 -0.004484880735668436 -0.004484880735668436 -0.004484880735668436 -0.005678223939865347 
-0.005678223939865347 -0.005678223939865347 -0.005678223939865347 -0.006849157788305367 -0.006849157788305367 -0.006849157788305367 -0.006849157788305367 -0.007993061140037528 -0.007993061140037528 
-0.007993061140037528 -0.007993061140037528 -0.009105419531132232 -0.009105419531132232 -0.009105419531132232 -0.009105419531132232 -0.01018184299120802 -0.01018184299120802 -0.01018184299120802 
-0.01018184299120802 -0.01121808336863914 -0.01121808336863914 -0.01121808336863914 -0.01121808336863914 -0.01221005109606903 -0.01221005109606903 -0.01221005109606903 -0.01221005109606903 
-0.01315383133006446 -0.01315383133006446 -0.01315383133006446 -0.01315383133006446 -0.01404569940121404 -0.01404569940121404 -0.01404569940121404 -0.01404569940121404 -0.0148821355136967 
-0.0148821355136967 -0.0148821355136967 -0.0148821355136967 -0.01565983863630779 -0.01565983863630779 -0.01565983863630779 -0.01565983863630779 -0.01637573953012102 -0.01637573953012102 
-0.01637573953012102 -0.01637573953012102 -0.01702701286137287 -0.01702701286137287 -0.01702701286137287 -0.01702701286137287 -0.01761108835176283 -0.01761108835176283 -0.01761108835176283 
-0.01761108835176283 -0.01812566092216961 -0.01812566092216961 -0.01812566092216961 -0.01812566092216961 -0.01856869978974309 -0.01856869978974309 -0.01856869978974309 -0.01856869978974309 
-0.01893845648247885 -0.01893845648247885 -0.01893845648247885 -0.01893845648247885 -0.01923347173963555 -0.01923347173963555 -0.01923347173963555 -0.01923347173963555 -0.01945258127077364 
-0.01945258127077364 -0.01945258127077364 -0.01945258127077364 -0.01959492035067473 -0.01959492035067473 -0.01959492035067473 -0.01959492035067473 -0.01965992723201954 -0.01965992723201954 
-0.01965992723201954 -0.01965992723201954 -0.01964734536234581 -0.01964734536234581 -0.01964734536234581 -0.01964734536234581 -0.01955722439654527 -0.01955722439654527 -0.01955722439654527 
-0.01955722439654527 -0.01938992000089751 -0.01938992000089751 -0.01938992000089751 -0.01938992000089751 -0.01914609244941802 -0.01914609244941802 -0.01914609244941802 -0.01914609244941802 
-0.01882670401805829 -0.01882670401805829 -0.01882670401805829 -0.01882670401805829 -0.01843301518704219 -0.01843301518704219 -0.01843301518704219 -0.01843301518704219 -0.01796657966632644 
-0.01796657966632644 -0.01796657966632644 -0.01796657966632644 -0.01742923826381718 -0.01742923826381718 -0.01742923826381718 -0.01742923826381718 -0.01682311162054219 -0.01682311162054219 
-0.01682311162054219 -0.01682311162054219 -0.01615059184144949 -0.01615059184144949 -0.01615059184144949 -0.01615059184144949 -0.01541433305486208 -0.01541433305486208 -0.01541433305486208 
-0.01541433305486208 -0.01461724093784625 -0.01461724093784625 -0.01461724093784625 -0.01461724093784625 -0.01376246124883069 -0.01376246124883069 -0.01376246124883069 -0.01376246124883069 
-0.01285336741273666 -0.01285336741273666 -0.01285336741273666 -0.01285336741273666 -0.01189354720760939 -0.01189354720760939 -0.01189354720760939 -0.01189354720760939 -0.01088678860529875 
-0.01088678860529875 -0.01088678860529875 -0.01088678860529875 -0.009837064822063379 -0.009837064822063379 -0.009837064822063379 -0.009837064822063379 -0.008748518638102864 -0.008748518638102864 
-0.008748518638102864 -0.008748518638102864 -0.007625446047895759 -0.007625446047895759 -0.007625446047895759 -0.007625446047895759 -0.006472279305872448 -0.006472279305872448 -0.006472279305872448 
-0.006472279305872448 -0.005293569434332056 -0.005293569434332056 -0.005293569434332056 -0.005293569434332056 -0.004093968262636189 -0.004093968262636189 -0.004093968262636189 -0.004093968262636189 
-0.002878210068563885 -0.002878210068563885 -0.002878210068563885 -0.002878210068563885 -0.001651092894280063 -0.001651092894280063 -0.001651092894280063 -0.001651092894280063 -0.0004174596106551098 
-0.0004174596106551098 -0.0004174596106551098 -0.0004174596106551098 0.002193477847491965 0.002193477847491965 0.002193477847491965 0.002193477847491965 0.005598327478119013 0.005598327478119013 
0.005598327478119013 0.005598327478119013 0.00898108306782246 0.00898108306782246 0.00898108306782246 0.00898108306782246 0.01232839442572378 0.01232839442572378 0.01232839442572378 
0.01232839442572378 0.01562705124313438 0.01562705124313438 0.01562705124313438 0.01562705124313438 0.01886403522860899 0.01886403522860899 0.01886403522860899 0.01886403522860899 
0.02202657148519421 0.02202657148519421 0.02202657148519421 0.02202657148519421 0.02510217892711068 0.02510217892711068 0.02510217892711068 0.02510217892711068 0.02807871953689652 
0.02807871953689652 0.02807871953689652 0.02807871953689652 0.03094444626861698 0.03094444626861698 0.03094444626861698 0.03094444626861698 0.03368804940808796 0.03368804940808796 
0.03368804940808796 0.03368804940808796 0.03629870120715099 0.03629870120715099 0.03629870120715099 0.03629870120715099 0.03876609861584855 0.03876609861584855 0.03876609861584855 
0.03876609861584855 0.04108050394385521 0.04108050394385521 0.04108050394385521 0.04108050394385521 0.04323278329069244 0.04323278329069244 0.04323278329069244 0.04323278329069244 
0.04521444259306123 0.04521444259306123 0.04521444259306123 0.04521444259306123 0.04701766114702921 0.04701766114702921 0.04701766114702921 0.04701766114702921 0.0486353224727759 
0.0486353224727759 0.0486353224727759 0.0486353224727759 0.05006104240008792 0.05006104240008792 0.05006104240008792 0.05006104240008792 0.05128919426376156 0.05128919426376156 
0.05128919426376156 0.05128919426376156 0.05231493110948011 0.05231493110948011 0.05231493110948011 0.05231493110948011 0.05313420482252813 0.05313420482252813 0.05313420482252813 
0.05313420482252813 0.05374378210385077 0.05374378210385077 0.05374378210385077 0.05374378210385077 0.054141257230408 0.054141257230408 0.054141257230408 0.054141257230408 
0.05432506154946443 0.05432506154946443 0.05432506154946443 0.05432506154946443 0.05429446966934492 0.05429446966934492 0.05429446966934492 0.05429446966934492 0.05404960232222426 
0.05404960232222426 0.05404960232222426 0.05404960232222426 0.05359142588765237 0.05359142588765237 0.05359142588765237 0.05359142588765237 0.05292174857869536 0.05292174857869536 
0.05292174857869536 0.05292174857869536 0.05204321330574538 0.05204321330574538 0.05204321330574538 0.05204321330574538 0.05095928724616013 0.05095928724616013 0.05095928724616013 
0.05095928724616013 0.04967424816089809 0.04967424816089809 0.04967424816089809 0.04967424816089809 0.04819316751215043 0.04819316751215043 0.04819316751215043 0.04819316751215043 
0.04652189044859589 0.04652189044859589 0.04652189044859589 0.04652189044859589 0.04466701273727096 0.04466701273727096 0.04466701273727096 0.04466701273727096 0.04263585473308908 
0.04263585473308908 0.04263585473308908 0.04263585473308908 0.04043643248874488 0.04043643248874488 0.04043643248874488 0.04043643248874488 0.03807742611901647 0.03807742611901647 
0.03807742611901647 0.03807742611901647 0.03556814554431752 0.03556814554431752 0.03556814554431752 0.03556814554431752 0.0329184937486951 0.0329184937486951 0.0329184937486951 
0.0329184937486951 0.03013892769727592 0.03013892769727592 0.03013892769727592 0.03013892769727592 0.02724041706740189 0.02724041706740189 0.02724041706740189 0.02724041706740189 
0.02423440095632565 0.02423440095632565 0.02423440095632565 0.02423440095632565 0.02113274273631936 0.02113274273631936 0.02113274273631936 0.02113274273631936 0.01794768323536457 
0.01794768323536457 0.01794768323536457 0.01794768323536457 0.01469179242819637 0.01469179242819637 0.01469179242819637 0.01469179242819637 0.01137791982835559 0.01137791982835559 
0.01137791982835559 0.01137791982835559 0.008019143777029447 0.008019143777029447 0.008019143777029447 0.008019143777029447 0.004628719828813613 0.004628719828813613 0.004628719828813613 
0.004628719828813613 0.001220028438094396 0.001220028438094396 0.001220028438094396 0.001220028438094396 -0.002193477847492 -0.002193477847492 -0.002193477847492 -0.002193477847492 
-0.005598327478119077 -0.005598327478119077 -0.005598327478119077 -0.005598327478119077 -0.008981083067822434 -0.008981083067822434 -0.008981083067822434 -0.008981083067822434 -0.01232839442572375 
-0.01232839442572375 -0.01232839442572375 -0.01232839442572375 -0.01562705124313437 -0.01562705124313437 -0.01562705124313437 -0.01562705124313437 -0.01886403522860904 -0.01886403522860904 
-0.01886403522860904 -0.01886403522860904 -0.02202657148519426 -0.02202657148519426 -0.02202657148519426 -0.02202657148519426 -0.0251021789271107 -0.0251021789271107 -0.0251021789271107 
-0.0251021789271107 -0.0280787195368965 -0.0280787195368965 -0.0280787195368965 -0.0280787195368965 -0.03094444626861695 -0.03094444626861695 -0.03094444626861695 -0.03094444626861695 
-0.03368804940808792 -0.03368804940808792 -0.03368804940808792 -0.03368804940808792 -0.03629870120715095 -0.03629870120715095 -0.03629870120715095 -0.03629870120715095 -0.03876609861584845 
-0.03876609861584845 -0.03876609861584845 -0.03876609861584845 -0.04108050394385502 -0.04108050394385502 -0.04108050394385502 -0.04108050394385502 -0.04323278329069239 -0.04323278329069239 
-0.04323278329069239 -0.04323278329069239 -0.04521444259306139 -0.04521444259306139 -0.04521444259306139 -0.04521444259306139 -0.04701766114702922 -0.04701766114702922 -0.04701766114702922 
-0.04701766114702922 -0.04863532247277598 -0.04863532247277598 -0.04863532247277598 -0.04863532247277598 -0.05006104240008782 -0.05006104240008782 -0.05006104240008782 -0.05006104240008782 
-0.05128919426376156 -0.05128919426376156 -0.05128919426376156 -0.05128919426376156 -0.05231493110947995 -0.05231493110947995 -0.05231493110947995 -0.05231493110947995 -0.05313420482252811 
-0.05313420482252811 -0.05313420482252811 -0.05313420482252811 -0.05374378210385057 -0.05374378210385057 -0.05374378210385057 -0.05374378210385057 -0.05414125723040789 -0.05414125723040789 
-0.05414125723040789 -0.05414125723040789 -0.05432506154946426 -0.05432506154946426 -0.05432506154946426 -0.05432506154946426 -0.05429446966934499 -0.05429446966934499 -0.05429446966934499 
-0.05429446966934499 -0.05404960232222428 -0.05404960232222428 -0.05404960232222428 -0.05404960232222428 -0.05359142588765232 -0.05359142588765232 -0.05359142588765232 -0.05359142588765232 
-0.05292174857869524 -0.05292174857869524 -0.05292174857869524 -0.05292174857869524 -0.05204321330574527 -0.05204321330574527 -0.05204321330574527 -0.05204321330574527 -0.05095928724616001 
-0.05095928724616001 -0.05095928724616001 -0.05095928724616001 -0.04967424816089801 -0.04967424816089801 -0.04967424816089801 -0.04967424816089801 -0.0481931675121502 -0.0481931675121502 
-0.0481931675121502 -0.0481931675121502 -0.04652189044859587 -0.04652189044859587 -0.04652189044859587 -0.04652189044859587 -0.04466701273727103 -0.04466701273727103 -0.04466701273727103 
-0.04466701273727103 -0.04263585473308935 -0.04263585473308935 -0.04263585473308935 -0.04263585473308935 -0.04043643248874501 -0.04043643248874501 -0.04043643248874501 -0.04043643248874501 
-0.03807742611901666 -0.03807742611901666 -0.03807742611901666 -0.03807742611901666 -0.03556814554431748 -0.03556814554431748 -0.03556814554431748 -0.03556814554431748 -0.03291849374869522 
-0.03291849374869522 -0.03291849374869522 -0.03291849374869522 -0.03013892769727581 -0.03013892769727581 -0.03013892769727581 -0.03013892769727581 -0.02724041706740193 -0.02724041706740193 
-0.02724041706740193 -0.02724041706740193 -0.02423440095632564 -0.02423440095632564 -0.02423440095632564 -0.02423440095632564 -0.02113274273631931 -0.02113274273631931 -0.02113274273631931 
-0.02113274273631931 -0.01794768323536472 -0.01794768323536472 -0.01794768323536472 -0.01794768323536472 -0.01469179242819653 -0.01469179242819653 -0.01469179242819653 -0.01469179242819653 
-0.0113779198283557 -0.0113779198283557 -0.0113779198283557 -0.0113779198283557 -0.008019143777029482 -0.008019143777029482 -0.008019143777029482 -0.008019143777029482 -0.004628719828813643 
-0.004628719828813643 -0.004628719828813643 -0.004628719828813643 -0.001220028438094429 -0.001220028438094429 -0.001220028438094429 -0.001220028438094429 0.003560477844690656 0.003560477844690656 
0.003560477844690656 0.003560477844690656 0.009124686480622458 0.009124686480622458 0.009124686480622458 0.009124686480622458 0.01465288414768797 0.01465288414768797 0.01465288414768797 
0.01465288414768797 0.02012325357528854 0.02012325357528854 0.02012325357528854 0.02012325357528854 0.02551420571446746 0.02551420571446746 0.02551420571446746 0.02551420571446746 
0.03080446494002327 0.03080446494002327 0.03080446494002327 0.03080446494002327 0.03597315301568217 0.03597315301568217 0.03597315301568217 0.03597315301568217 0.04099987149095852 
0.04099987149095852 0.04099987149095852 0.04099987149095852 0.0458647822045196 0.0458647822045196 0.0458647822045196 0.0458647822045196 0.05054868557634529 0.05054868557634529 
0.05054868557634529 0.05054868557634529 0.0550330963796989 0.0550330963796989 0.0550330963796989 0.0550330963796989 0.05930031669387199 0.05930031669387199 0.05930031669387199 
0.05930031669387199 0.06333350574979207 0.06333350574979207 0.06333350574979207 0.06333350574979207 0.06711674639284423 0.06711674639284423 0.06711674639284423 0.06711674639284423 
0.07063510790060855 0.07063510790060855 0.07063510790060855 0.07063510790060855 0.0738747049076004 0.0738747049076004 0.0738747049076004 0.0738747049076004 0.0768227522044642 
0.0768227522044642 0.0768227522044642 0.0768227522044642 0.07946761519535421 0.07946761519535421 0.07946761519535421 0.07946761519535421 0.08179885581436787 0.08179885581436787 
0.08179885581436787 0.08179885581436787 0.08380727371982484 0.08380727371982484 0.08380727371982484 0.08380727371982484 0.08548494260381097 0.08548494260381097 0.08548494260381097 
0.08548494260381097 0.08682524147369526 0.08682524147369526 0.08682524147369526 0.08682524147369526 0.08782288078216255 0.08782288078216255 0.08782288078216255 0.08782288078216255 
0.08847392330264033 0.08847392330264033 0.08847392330264033 0.08847392330264033 0.08877579966773336 0.08877579966773336 0.08877579966773336 0.08877579966773336 0.08872731850934285 
0.08872731850934285 0.08872731850934285 0.08872731850934285 0.0883286711604519 0.0883286711604519 0.0883286711604519 0.0883286711604519 0.08758143090002199 0.08758143090002199 
0.08758143090002199 0.08758143090002199 0.08648854674397957 0.08648854674397957 0.08648854674397957 0.08648854674397957 0.08505433180679703 0.08505433180679703 0.08505433180679703 
0.08505433180679703 0.08328444627960116 0.08328444627960116 0.08328444627960116 0.08328444627960116 0.0811858750919839 0.0811858750919839 0.0811858750919839 0.0811858750919839 
0.07876690034567679 0.07876690034567679 0.07876690034567679 0.07876690034567679 0.07603706862887918 0.07603706862887918 0.07603706862887918 0.07603706862887918 0.07300715334023565 
0.07300715334023565 0.07300715334023565 0.07300715334023565 0.06968911217115387 0.06968911217115387 0.06968911217115387 0.06968911217115387 0.06609603991425948 0.06609603991425948 
0.06609603991425948 0.06609603991425948 0.06224211678423169 0.06224211678423169 0.06224211678423169 0.06224211678423169 0.05814255245497496 0.05814255245497496 0.05814255245497496 
0.05814255245497496 0.05381352603398407 0.05381352603398407 0.05381352603398407 0.05381352603398407 0.04927212221079844 0.04927212221079844 0.04927212221079844 0.04927212221079844 
0.04453626383153815 0.04453626383153815 0.04453626383153815 0.04453626383153815 0.03962464116561839 0.03962464116561839 0.03962464116561839 0.03962464116561839 0.03455663814379453 
0.03455663814379453 0.03455663814379453 0.03455663814379453 0.02935225585864334 0.02935225585864334 0.02935225585864334 0.02935225585864334 0.02403203362938822 0.02403203362938822 
0.02403203362938822 0.02403203362938822 0.01861696794258971 0.01861696794258971 0.01861696794258971 0.01861696794258971 0.01312842958860537 0.01312842958860537 0.01312842958860537 
0.01312842958860537 0.007588079320843771 0.007588079320843771 0.007588079320843771 0.007588079320843771 0.002017782370666514 0.002017782370666514 0.002017782370666514 0.002017782370666514 
-0.003560477844690684 -0.003560477844690684 -0.003560477844690684 -0.003560477844690684 -0.009124686480622531 -0.009124686480622531 -0.009124686480622531 -0.009124686480622531 -0.01465288414768797 
-0.01465288414768797 -0.01465288414768797 -0.01465288414768797 -0.02012325357528858 -0.02012325357528858 -0.02012325357528858 -0.02012325357528858 -0.02551420571446753 -0.02551420571446753 
-0.02551420571446753 -0.02551420571446753 -0.0308044649400234 -0.0308044649400234 -0.0308044649400234 -0.0308044649400234 -0.03597315301568219 -0.03597315301568219 -0.03597315301568219 
-0.03597315301568219 -0.04099987149095869 -0.04099987149095869 -0.04099987149095869 -0.04099987149095869 -0.0458647822045196 -0.0458647822045196 -0.0458647822045196 -0.0458647822045196 
-0.05054868557634529 -0.05054868557634529 -0.05054868557634529 -0.05054868557634529 -0.05503309637969887 -0.05503309637969887 -0.05503309637969887 -0.05503309637969887 -0.05930031669387202 
-0.05930031669387202 -0.05930031669387202 -0.05930031669387202 -0.06333350574979191 -0.06333350574979191 -0.06333350574979191 -0.06333350574979191 -0.06711674639284433 -0.06711674639284433 
-0.06711674639284433 -0.06711674639284433 -0.07063510790060856 -0.07063510790060856 -0.07063510790060856 -0.07063510790060856 -0.0738747049076003 -0.0738747049076003 -0.0738747049076003 
-0.0738747049076003 -0.07682275220446419 -0.07682275220446419 -0.07682275220446419 -0.07682275220446419 -0.07946761519535414 -0.07946761519535414 -0.07946761519535414 -0.07946761519535414 
-0.08179885581436779 -0.08179885581436779 -0.08179885581436779 -0.08179885581436779 -0.0838072737198249 -0.0838072737198249 -0.0838072737198249 -0.0838072737198249 -0.08548494260381098 
-0.08548494260381098 -0.08548494260381098 -0.08548494260381098 -0.08682524147369532 -0.08682524147369532 -0.08682524147369532 -0.08682524147369532 -0.08782288078216252 -0.08782288078216252 
-0.08782288078216252 -0.08782288078216252 -0.08847392330264034 -0.08847392330264034 -0.08847392330264034 -0.08847392330264034 -0.08877579966773333 -0.08877579966773333 -0.08877579966773333 
-0.08877579966773333 -0.08872731850934251 -0.08872731850934251 -0.08872731850934251 -0.08872731850934251 -0.0883286711604518 -0.0883286711604518 -0.0883286711604518 -0.0883286711604518 
-0.08758143090002191 -0.08758143090002191 -0.08758143090002191 -0.08758143090002191 -0.0864885467439795 -0.0864885467439795 -0.0864885467439795 -0.0864885467439795 -0.085054331806797 
-0.085054331806797 -0.085054331806797 -0.085054331806797 -0.08328444627960109 -0.08328444627960109 -0.08328444627960109 -0.08328444627960109 -0.08118587509198387 -0.08118587509198387 
-0.08118587509198387 -0.08118587509198387 -0.07876690034567679 -0.07876690034567679 -0.07876690034567679 -0.07876690034567679 -0.0760370686288791 -0.0760370686288791 -0.0760370686288791 
-0.0760370686288791 -0.07300715334023573 -0.07300715334023573 -0.07300715334023573 -0.07300715334023573 -0.06968911217115376 -0.06968911217115376 -0.06968911217115376 -0.06968911217115376 
-0.06609603991425939 -0.06609603991425939 -0.06609603991425939 -0.06609603991425939 -0.06224211678423171 -0.06224211678423171 -0.06224211678423171 -0.06224211678423171 -0.05814255245497505 
-0.05814255245497505 -0.05814255245497505 -0.05814255245497505 -0.05381352603398413 -0.05381352603398413 -0.05381352603398413 -0.05381352603398413 -0.04927212221079841 -0.04927212221079841 
-0.04927212221079841 -0.04927212221079841 -0.04453626383153819 -0.04453626383153819 -0.04453626383153819 -0.04453626383153819 -0.03962464116561847 -0.03962464116561847 -0.03962464116561847 
-0.03962464116561847 -0.03455663814379457 -0.03455663814379457 -0.03455663814379457 -0.03455663814379457 -0.02935225585864335 -0.02935225585864335 -0.02935225585864335 -0.02935225585864335 
-0.02403203362938812 -0.02403203362938812 -0.02403203362938812 -0.02403203362938812 -0.01861696794258967 -0.01861696794258967 -0.01861696794258967 -0.01861696794258967 -0.01312842958860534 
-0.01312842958860534 -0.01312842958860534 -0.01312842958860534 -0.007588079320843792 -0.007588079320843792 -0.007588079320843792 -0.007588079320843792 -0.002017782370666539 -0.002017782370666539 
-0.002017782370666539 -0.002017782370666539 0.004913426262463902 0.004913426262463902 0.004913426262463902 0.004913426262463902 0.01261503451425958 0.01261503451425958 0.01261503451425958 
0.01261503451425958 0.02026685698808851 0.02026685698808851 0.02026685698808851 0.02026685698808851 0.02783869543643171 0.02783869543643171 0.02783869543643171 0.02783869543643171 
0.03530066727217736 0.03530066727217736 0.03530066727217736 0.03530066727217736 0.04262332350154064 0.04262332350154064 0.04262332350154064 0.04262332350154064 0.04977776494578755 
0.04977776494578755 0.04977776494578755 0.04977776494578755 0.05673575629309109 0.05673575629309109 0.05673575629309109 0.05673575629309109 0.06346983753040727 0.06346983753040727 
0.06346983753040727 0.06346983753040727 0.06995343231560151 0.06995343231560151 0.06995343231560151 0.06995343231560151 0.07616095286212936 0.07616095286212936 0.07616095286212936 
0.07616095286212936 0.08206790092233998 0.08206790092233998 0.08206790092233998 0.08206790092233998 0.08765096447086769 0.08765096447086769 0.08765096447086769 0.08765096447086769 
0.09288810970654551 0.09288810970654551 0.09288810970654551 0.09288810970654551 0.09775866800975225 0.09775866800975225 0.09775866800975225 0.09775866800975225 0.1022434175120117 
0.1022434175120117 0.1022434175120117 0.1022434175120117 0.1063246589559253 0.1063246589559253 0.1063246589559253 0.1063246589559253 0.1099862855460562 0.1099862855460562 
0.1099862855460562 0.1099862855460562 0.113213846515091 0.113213846515091 0.113213846515091 0.113213846515091 0.1159946041544173 0.1159946041544173 0.1159946041544173 
0.1159946041544173 0.11831758408404 0.11831758408404 0.11831758408404 0.11831758408404 0.1201736185634453 0.1201736185634453 0.1201736185634453 0.1201736185634453 
0.1215553826724849 0.1215553826724849 0.1215553826724849 0.1215553826724849 0.1224574232194879 0.1224574232194879 0.1224574232194879 0.1224574232194879 0.1228761802625187 
0.1228761802625187 0.1228761802625187 0.1228761802625187 0.1228100011588402 0.1228100011588402 0.1228100011588402 0.1228100011588402 0.1222591470871406 0.1222591470871406 
0.1222591470871406 0.1222591470871406 0.1212257920167791 0.1212257920167791 0.1212257920167791 0.1212257920167791 0.1197140141281237 0.1197140141281237 0.1197140141281237 
0.1197140141281237 0.1177297797178355 0.1177297797178355 0.1177297797178355 0.1177297797178355 0.1152809196526209 0.1152809196526209 0.1152809196526209 0.1152809196526209 
0.1123770984643799 0.1123770984643799 0.1123770984643799 0.1123770984643799 0.1090297762087128 0.1090297762087128 0.1090297762087128 0.1090297762087128 0.1052521632373165 
0.1052521632373165 0.1052521632373165 0.1052521632373165 0.101059168062762 0.101059168062762 0.101059168062762 0.101059168062762 0.09646733852140595 0.09646733852140595 
0.09646733852140595 0.09646733852140595 0.09149479646664073 0.09149479646664073 0.09149479646664073 0.09149479646664073 0.08616116625021805 0.08616116625021805 0.08616116625021805 
0.08616116625021805 0.08048749727389821 0.08048749727389821 0.08048749727389821 0.08048749727389821 0.0744961809170783 0.0744961809170783 0.0744961809170783 0.0744961809170783 
0.06821086216824626 0.06821086216824626 0.06821086216824626 0.06821086216824626 0.06165634630901496 0.06165634630901496 0.06165634630901496 0.06165634630901496 0.05485850101900713 
0.05485850101900713 0.05485850101900713 0.05485850101900713 0.04784415428794243 0.04784415428794243 0.04784415428794243 0.04784415428794243 0.04064098853781819 0.04064098853781819 
0.04064098853781819 0.04064098853781819 0.03327743137303649 0.03327743137303649 0.03327743137303649 0.03327743137303649 0.02578254338963791 0.02578254338963791 0.02578254338963791 
0.02578254338963791 0.01818590348640401 0.01818590348640401 0.01818590348640401 0.01818590348640401 0.01051749213045826 0.01051749213045826 0.01051749213045826 0.01051749213045826 
0.002807573038058757 0.002807573038058757 0.002807573038058757 0.002807573038058757 -0.004913426262463929 -0.004913426262463929 -0.004913426262463929 -0.004913426262463929 -0.01261503451425964 
-0.01261503451425964 -0.01261503451425964 -0.01261503451425964 -0.0202668569880886 -0.0202668569880886 -0.0202668569880886 -0.0202668569880886 -0.02783869543643178 -0.02783869543643178 
-0.02783869543643178 -0.02783869543643178 -0.03530066727217747 -0.03530066727217747 -0.03530066727217747 -0.03530066727217747 -0.0426233235015408 -0.0426233235015408 -0.0426233235015408 
-0.0426233235015408 -0.04977776494578758 -0.04977776494578758 -0.04977776494578758 -0.04977776494578758 -0.05673575629309125 -0.05673575629309125 -0.05673575629309125 -0.05673575629309125 
-0.06346983753040736 -0.06346983753040736 -0.06346983753040736 -0.06346983753040736 -0.06995343231560153 -0.06995343231560153 -0.06995343231560153 -0.06995343231560153 -0.07616095286212934 