Title = RSC/Post/Linear_Advection_2D/Sine_Wave_2D/Quad100/
FileType = Solution
Variables = q
Zone T = RSC/Post/Linear_Advection_2D/Sine_Wave_2D/Quad100/
ZoneType = FETriangle
Nodes = 40000
Elements = 20000
DataPacking = Block
StrandID = 7
SolutionTime = 0.6000000000000001
-0.4504325310933147 -0.4504325310933147 -0.4504325310933147 -0.4504325310933147 -0.4077031762092446 -0.4077031762092446 -0.4077031762092446 -0.4077031762092446 -0.3633648031505403 -0.3633648031505403 
-0.3633648031505403 -0.3633648031505403 -0.3175923952193887 -0.3175923952193887 -0.3175923952193887 -0.3175923952193887 -0.2705665951984706 -0.2705665951984706 -0.2705665951984706 
-0.2705665951984706 -0.2224729924364229 -0.2224729924364229 -0.2224729924364229 -0.2224729924364229 -0.1735013904114707 -0.1735013904114707 -0.1735013904114707 -0.1735013904114707 
-0.12384505766381 -0.12384505766381 -0.12384505766381 -0.12384505766381 -0.07369996505297513 -0.07369996505297513 -0.07369996505297513 -0.07369996505297513 -0.02326401235038749 
-0.02326401235038749 -0.02326401235038749 -0.02326401235038749 0.02726375278063086 0.02726375278063086 0.02726375278063086 0.02726375278063086 0.07768392033504777 0.07768392033504777 
0.07768392033504777 0.07768392033504777 0.1277975049463098 0.1277975049463098 0.1277975049463098 0.1277975049463098 0.1774067311906749 0.1774067311906749 0.1774067311906749 
0.1774067311906749 0.2263158141164562 0.2263158141164562 0.2263158141164562 0.2263158141164562 0.2743317319177806 0.2743317319177806 0.2743317319177806 0.2743317319177806 
0.3212649877034722 0.3212649877034722 0.3212649877034722 0.3212649877034722 0.3669303573547101 0.3669303573547101 0.3669303573547101 0.3669303573547101 0.4111476205200036 
0.4111476205200036 0.4111476205200036 0.4111476205200036 0.4537422718625846 0.4537422718625846 0.4537422718625846 0.4537422718625846 0.4945462097532499 0.4945462097532499 
0.4945462097532499 0.4945462097532499 0.5333983996906909 0.5333983996906909 0.5333983996906909 0.5333983996906909 0.5701455098311021 0.5701455098311021 0.5701455098311021 
0.5701455098311021 0.6046425161189167 0.6046425161189167 0.6046425161189167 0.6046425161189167 0.6367532746304998 0.6367532746304998 0.6367532746304998 0.6367532746304998 
0.6663510588720163 0.6663510588720163 0.6663510588720163 0.6663510588720163 0.693319059911006 0.693319059911006 0.693319059911006 0.693319059911006 0.7175508473678758 
0.7175508473678758 0.7175508473678758 0.7175508473678758 0.7389507894479843 0.7389507894479843 0.7389507894479843 0.7389507894479843 0.7574344303566458 0.7574344303566458 
0.7574344303566458 0.7574344303566458 0.7729288236075643 0.7729288236075643 0.7729288236075643 0.7729288236075643 0.7853728199092933 0.7853728199092933 0.7853728199092933 
0.7853728199092933 0.7947173084935517 0.7947173084935517 0.7947173084935517 0.7947173084935517 0.8009254109329893 0.8009254109329893 0.8009254109329893 0.8009254109329893 
0.8039726266834888 0.8039726266834888 0.8039726266834888 0.8039726266834888 0.8038469297766239 0.8038469297766239 0.8038469297766239 0.8038469297766239 0.80054881628066 
0.80054881628066 0.80054881628066 0.80054881628066 0.794091302342801 0.794091302342801 0.794091302342801 0.794091302342801 0.7844998728204025 0.7844998728204025 
0.7844998728204025 0.7844998728204025 0.7718123807038817 0.7718123807038817 0.7718123807038817 0.7718123807038817 0.756078897728259 0.756078897728259 0.756078897728259 
0.756078897728259 0.7373615167628943 0.7373615167628943 0.7373615167628943 0.7373615167628943 0.7157341067593027 0.7157341067593027 0.7157341067593027 0.7157341067593027 
0.691282021224138 0.691282021224138 0.691282021224138 0.691282021224138 0.6641017613679159 0.6641017613679159 0.6641017613679159 0.6641017613679159 0.6343005952588104 
0.6343005952588104 0.6343005952588104 0.6343005952588104 0.6019961344845963 0.6019961344845963 0.6019961344845963 0.6019961344845963 0.5673158699934446 0.5673158699934446 
0.5673158699934446 0.5673158699934446 0.5303966689453959 0.5303966689453959 0.5303966689453959 0.5303966689453959 0.4913842345602086 0.4913842345602086 0.4913842345602086 
0.4913842345602086 0.4504325310933148 0.4504325310933148 0.4504325310933148 0.4504325310933148 0.4077031762092443 0.4077031762092443 0.4077031762092443 0.4077031762092443 
0.3633648031505403 0.3633648031505403 0.3633648031505403 0.3633648031505403 0.3175923952193884 0.3175923952193884 0.3175923952193884 0.3175923952193884 0.2705665951984696 
0.2705665951984696 0.2705665951984696 0.2705665951984696 0.222472992436422 0.222472992436422 0.222472992436422 0.222472992436422 0.17350139041147 0.17350139041147 
0.17350139041147 0.17350139041147 0.1238450576638095 0.1238450576638095 0.1238450576638095 0.1238450576638095 0.07369996505297539 0.07369996505297539 0.07369996505297539 
0.07369996505297539 0.02326401235038764 0.02326401235038764 0.02326401235038764 0.02326401235038764 -0.02726375278063075 -0.02726375278063075 -0.02726375278063075 -0.02726375278063075 
-0.07768392033504784 -0.07768392033504784 -0.07768392033504784 -0.07768392033504784 -0.1277975049463098 -0.1277975049463098 -0.1277975049463098 -0.1277975049463098 -0.177406731190675 
-0.177406731190675 -0.177406731190675 -0.177406731190675 -0.226315814116457 -0.226315814116457 -0.226315814116457 -0.226315814116457 -0.2743317319177809 -0.2743317319177809 
-0.2743317319177809 -0.2743317319177809 -0.3212649877034725 -0.3212649877034725 -0.3212649877034725 -0.3212649877034725 -0.3669303573547099 -0.3669303573547099 -0.3669303573547099 
-0.3669303573547099 -0.4111476205200033 -0.4111476205200033 -0.4111476205200033 -0.4111476205200033 -0.4537422718625845 -0.4537422718625845 -0.4537422718625845 -0.4537422718625845 
-0.4945462097532498 -0.4945462097532498 -0.4945462097532498 -0.4945462097532498 -0.5333983996906908 -0.5333983996906908 -0.5333983996906908 -0.5333983996906908 -0.5701455098311021 
-0.5701455098311021 -0.5701455098311021 -0.5701455098311021 -0.6046425161189165 -0.6046425161189165 -0.6046425161189165 -0.6046425161189165 -0.6367532746304996 -0.6367532746304996 
-0.6367532746304996 -0.6367532746304996 -0.666351058872016 -0.666351058872016 -0.666351058872016 -0.666351058872016 -0.6933190599110058 -0.6933190599110058 -0.6933190599110058 
-0.6933190599110058 -0.7175508473678757 -0.7175508473678757 -0.7175508473678757 -0.7175508473678757 -0.7389507894479843 -0.7389507894479843 -0.7389507894479843 -0.7389507894479843 
-0.7574344303566449 -0.7574344303566449 -0.7574344303566449 -0.7574344303566449 -0.7729288236075633 -0.7729288236075633 -0.7729288236075633 -0.7729288236075633 -0.7853728199092931 
-0.7853728199092931 -0.7853728199092931 -0.7853728199092931 -0.7947173084935535 -0.7947173084935535 -0.7947173084935535 -0.7947173084935535 -0.8009254109329903 -0.8009254109329903 
-0.8009254109329903 -0.8009254109329903 -0.8039726266834896 -0.8039726266834896 -0.8039726266834896 -0.8039726266834896 -0.8038469297766242 -0.8038469297766242 -0.8038469297766242 
-0.8038469297766242 -0.8005488162806602 -0.8005488162806602 -0.8005488162806602 -0.8005488162806602 -0.7940913023428011 -0.7940913023428011 -0.7940913023428011 -0.7940913023428011 
-0.7844998728204026 -0.7844998728204026 -0.7844998728204026 -0.7844998728204026 -0.7718123807038817 -0.7718123807038817 -0.7718123807038817 -0.7718123807038817 -0.7560788977282589 
-0.7560788977282589 -0.7560788977282589 -0.7560788977282589 -0.737361516762894 -0.737361516762894 -0.737361516762894 -0.737361516762894 -0.7157341067593005 -0.7157341067593005 
-0.7157341067593005 -0.7157341067593005 -0.6912820212241371 -0.6912820212241371 -0.6912820212241371 -0.6912820212241371 -0.6641017613679163 -0.6641017613679163 -0.6641017613679163 
-0.6641017613679163 -0.6343005952588108 -0.6343005952588108 -0.6343005952588108 -0.6343005952588108 -0.6019961344845964 -0.6019961344845964 -0.6019961344845964 -0.6019961344845964 
-0.5673158699934444 -0.5673158699934444 -0.5673158699934444 -0.5673158699934444 -0.5303966689453958 -0.5303966689453958 -0.5303966689453958 -0.5303966689453958 -0.4913842345602085 
-0.4913842345602085 -0.4913842345602085 -0.4913842345602085 -0.4577235047542286 -0.4577235047542286 -0.4577235047542286 -0.4577235047542286 -0.4143026318851646 -0.4143026318851646 
-0.4143026318851646 -0.4143026318851646 -0.3692466958049182 -0.3692466958049182 -0.3692466958049182 -0.3692466958049182 -0.3227335117090988 -0.3227335117090988 -0.3227335117090988 
-0.3227335117090988 -0.2749466458854806 -0.2749466458854806 -0.2749466458854806 -0.2749466458854806 -0.2260746912617261 -0.2260746912617261 -0.2260746912617261 -0.2260746912617261 
-0.1763105231152635 -0.1763105231152635 -0.1763105231152635 -0.1763105231152635 -0.1258505378826809 -0.1258505378826809 -0.1258505378826809 -0.1258505378826809 -0.07489387807271715 
-0.07489387807271715 -0.07489387807271715 -0.07489387807271715 -0.02364164634175863 -0.02364164634175863 -0.02364164634175863 -0.02364164634175863 0.02770388816647004 0.02770388816647004 
0.02770388816647004 0.02770388816647004 0.07894008808480807 0.07894008808480807 0.07894008808480807 0.07894008808480807 0.1298647475397714 0.1298647475397714 0.1298647475397714 
0.1298647475397714 0.1802768901657543 0.1802768901657543 0.1802768901657543 0.1802768901657543 0.2299775622669302 0.2299775622669302 0.2299775622669302 0.2299775622669302 
0.2787706179965926 0.2787706179965926 0.2787706179965926 0.2787706179965926 0.3264634934552033 0.3264634934552033 0.3264634934552033 0.3264634934552033 0.3728679666521296 
0.3728679666521296 0.3728679666521296 0.3728679666521296 0.4178009003318502 0.4178009003318502 0.4178009003318502 0.4178009003318502 0.4610849647330361 0.4610849647330361 
0.4610849647330361 0.4610849647330361 0.5025493374281034 0.5025493374281034 0.5025493374281034 0.5025493374281034 0.5420303774812949 0.5420303774812949 0.5420303774812949 
0.5420303774812949 0.5793722712646925 0.5793722712646925 0.5793722712646925 0.5793722712646925 0.6144276473834214 0.6144276473834214 0.6144276473834214 0.6144276473834214 
0.6470581582832189 0.6470581582832189 0.6470581582832189 0.6470581582832189 0.6771350262450262 0.6771350262450262 0.6771350262450262 0.6771350262450262 0.7045395516118115 
0.7045395516118115 0.7045395516118115 0.7045395516118115 0.7291635812418888 0.7291635812418888 0.7291635812418888 0.7291635812418888 0.7509099353399578 0.7509099353399578 
0.7509099353399578 0.7509099353399578 0.7696927909813575 0.7696927909813575 0.7696927909813575 0.7696927909813575 0.7854380208159416 0.7854380208159416 0.7854380208159416 
0.7854380208159416 0.7980834856148638 0.7980834856148638 0.7980834856148638 0.7980834856148638 0.8075792795057266 0.8075792795057266 0.8075792795057266 0.8075792795057266 
0.8138879269282577 0.8138879269282577 0.8138879269282577 0.8138879269282577 0.8169845305332282 0.8169845305332282 0.8169845305332282 0.8169845305332282 0.8168568694409123 
0.8168568694409123 0.8168568694409123 0.8168568694409123 0.8135054474713186 0.8135054474713186 0.8135054474713186 0.8135054474713186 0.8069434911558424 0.8069434911558424 
0.8069434911558424 0.8069434911558424 0.7971968975381879 0.7971968975381879 0.7971968975381879 0.7971968975381879 0.7843041319705689 0.7843041319705689 0.7843041319705689 
0.7843041319705689 0.7683160763085368 0.7683160763085368 0.7683160763085368 0.7683160763085368 0.7492958281035413 0.7492958281035413 0.7492958281035413 0.7492958281035413 
0.7273184515857239 0.7273184515857239 0.7273184515857239 0.7273184515857239 0.7024706814196905 0.7024706814196905 0.7024706814196905 0.7024706814196905 0.6748505804024201 
0.6748505804024201 0.6748505804024201 0.6748505804024201 0.6445671524542044 0.6445671524542044 0.6445671524542044 0.6445671524542044 0.6117399124299736 0.6117399124299736 
0.6117399124299736 0.6117399124299736 0.5764984144487637 0.5764984144487637 0.5764984144487637 0.5764984144487637 0.5389817406027969 0.5389817406027969 0.5389817406027969 
0.5389817406027969 0.4993379520640058 0.4993379520640058 0.4993379520640058 0.4993379520640058 0.4577235047542287 0.4577235047542287 0.4577235047542287 0.4577235047542287 
0.4143026318851644 0.4143026318851644 0.4143026318851644 0.4143026318851644 0.369246695804919 0.369246695804919 0.369246695804919 0.369246695804919 0.3227335117090991 
0.3227335117090991 0.3227335117090991 0.3227335117090991 0.2749466458854811 0.2749466458854811 0.2749466458854811 0.2749466458854811 0.2260746912617265 0.2260746912617265 
0.2260746912617265 0.2260746912617265 0.1763105231152635 0.1763105231152635 0.1763105231152635 0.1763105231152635 0.1258505378826808 0.1258505378826808 0.1258505378826808 
0.1258505378826808 0.07489387807271754 0.07489387807271754 0.07489387807271754 0.07489387807271754 0.02364164634175892 0.02364164634175892 0.02364164634175892 0.02364164634175892 
-0.02770388816646978 -0.02770388816646978 -0.02770388816646978 -0.02770388816646978 -0.07894008808480799 -0.07894008808480799 -0.07894008808480799 -0.07894008808480799 -0.129864747539771 
-0.129864747539771 -0.129864747539771 -0.129864747539771 -0.180276890165754 -0.180276890165754 -0.180276890165754 -0.180276890165754 -0.22997756226693 -0.22997756226693 
-0.22997756226693 -0.22997756226693 -0.2787706179965928 -0.2787706179965928 -0.2787706179965928 -0.2787706179965928 -0.3264634934552046 -0.3264634934552046 -0.3264634934552046 
-0.3264634934552046 -0.3728679666521304 -0.3728679666521304 -0.3728679666521304 -0.3728679666521304 -0.4178009003318512 -0.4178009003318512 -0.4178009003318512 -0.4178009003318512 
-0.4610849647330363 -0.4610849647330363 -0.4610849647330363 -0.4610849647330363 -0.5025493374281044 -0.5025493374281044 -0.5025493374281044 -0.5025493374281044 -0.542030377481295 
-0.542030377481295 -0.542030377481295 -0.542030377481295 -0.5793722712646926 -0.5793722712646926 -0.5793722712646926 -0.5793722712646926 -0.6144276473834205 -0.6144276473834205 
-0.6144276473834205 -0.6144276473834205 -0.6470581582832184 -0.6470581582832184 -0.6470581582832184 -0.6470581582832184 -0.6771350262450256 -0.6771350262450256 -0.6771350262450256 
-0.6771350262450256 -0.7045395516118111 -0.7045395516118111 -0.7045395516118111 -0.7045395516118111 -0.7291635812418891 -0.7291635812418891 -0.7291635812418891 -0.7291635812418891 
-0.7509099353399582 -0.7509099353399582 -0.7509099353399582 -0.7509099353399582 -0.7696927909813575 -0.7696927909813575 -0.7696927909813575 -0.7696927909813575 -0.7854380208159412 
-0.7854380208159412 -0.7854380208159412 -0.7854380208159412 -0.7980834856148635 -0.7980834856148635 -0.7980834856148635 -0.7980834856148635 -0.8075792795057263 -0.8075792795057263 
-0.8075792795057263 -0.8075792795057263 -0.8138879269282581 -0.8138879269282581 -0.8138879269282581 -0.8138879269282581 -0.8169845305332284 -0.8169845305332284 -0.8169845305332284 
-0.8169845305332284 -0.8168568694409127 -0.8168568694409127 -0.8168568694409127 -0.8168568694409127 -0.8135054474713189 -0.8135054474713189 -0.8135054474713189 -0.8135054474713189 
-0.8069434911558426 -0.8069434911558426 -0.8069434911558426 -0.8069434911558426 -0.7971968975381879 -0.7971968975381879 -0.7971968975381879 -0.7971968975381879 -0.7843041319705693 
-0.7843041319705693 -0.7843041319705693 -0.7843041319705693 -0.7683160763085365 -0.7683160763085365 -0.7683160763085365 -0.7683160763085365 -0.7492958281035413 -0.7492958281035413 
-0.7492958281035413 -0.7492958281035413 -0.7273184515857234 -0.7273184515857234 -0.7273184515857234 -0.7273184515857234 -0.7024706814196897 -0.7024706814196897 -0.7024706814196897 
-0.7024706814196897 -0.6748505804024206 -0.6748505804024206 -0.6748505804024206 -0.6748505804024206 -0.644567152454205 -0.644567152454205 -0.644567152454205 -0.644567152454205 
-0.6117399124299741 -0.6117399124299741 -0.6117399124299741 -0.6117399124299741 -0.5764984144487635 -0.5764984144487635 -0.5764984144487635 -0.5764984144487635 -0.5389817406027967 
-0.5389817406027967 -0.5389817406027967 -0.5389817406027967 -0.4993379520640056 -0.4993379520640056 -0.4993379520640056 -0.4993379520640056 -0.4632080528558556 -0.4632080528558556 
-0.4632080528558556 -0.4632080528558556 -0.4192670243499022 -0.4192670243499022 -0.4192670243499022 -0.4192670243499022 -0.3736713404437232 -0.3736713404437232 -0.3736713404437232 
-0.3736713404437232 -0.3266009464710096 -0.3266009464710096 -0.3266009464710096 -0.3266009464710096 -0.278241607772355 -0.278241607772355 -0.278241607772355 -0.278241607772355 
-0.2287841765643213 -0.2287841765643213 -0.2287841765643213 -0.2287841765643213 -0.1784238387329364 -0.1784238387329364 -0.1784238387329364 -0.1784238387329364 -0.1273593435241706 
-0.1273593435241706 -0.1273593435241706 -0.1273593435241706 -0.07579221917146436 -0.07579221917146436 -0.07579221917146436 -0.07579221917146436 -0.02392597755585965 -0.02392597755585965 
-0.02392597755585965 -0.02392597755585965 0.02803468896241871 0.02803468896241871 0.02803468896241871 0.02803468896241871 0.07988471537119335 0.07988471537119335 0.07988471537119335 
0.07988471537119335 0.1314194733042529 0.1314194733042529 0.1314194733042529 0.1314194733042529 0.1824355786160268 0.1824355786160268 0.1824355786160268 0.1824355786160268 
0.2327316940458908 0.2327316940458908 0.2327316940458908 0.2327316940458908 0.2821093238043531 0.2821093238043531 0.2821093238043531 0.2821093238043531 0.3303735969452499 
0.3303735969452499 0.3303735969452499 0.3303735969452499 0.3773340364323433 0.3773340364323433 0.3773340364323433 0.3773340364323433 0.4228053108651619 0.4228053108651619 
0.4228053108651619 0.4228053108651619 0.466607965897369 0.466607965897369 0.466607965897369 0.466607965897369 0.5085691324610808 0.5085691324610808 0.5085691324610808 
0.5085691324610808 0.5485232090021046 0.5485232090021046 0.5485232090021046 0.5485232090021046 0.586312515033614 0.586312515033614 0.586312515033614 0.586312515033614 
0.6217879134289945 0.6217879134289945 0.6217879134289945 0.6217879134289945 0.6548093989979478 0.6548093989979478 0.6548093989979478 0.6548093989979478 0.6852466510230146 
0.6852466510230146 0.6852466510230146 0.6852466510230146 0.7129795475759095 0.7129795475759095 0.7129795475759095 0.7129795475759095 0.737898639583894 0.737898639583894 
0.737898639583894 0.737898639583894 0.7599055827752623 0.7599055827752623 0.7599055827752623 0.7599055827752623 0.7789135257992543 0.7789135257992543 0.7789135257992543 
0.7789135257992543 0.7948474529886578 0.7948474529886578 0.7948474529886578 0.7948474529886578 0.8076444804123748 0.8076444804123748 0.8076444804123748 0.8076444804123748 
0.8172541040495692 0.8172541040495692 0.8172541040495692 0.8172541040495692 0.8236383991059647 0.8236383991059647 0.8236383991059647 0.8236383991059647 0.8267721696856807 
0.8267721696856807 0.8267721696856807 0.8267721696856807 0.8266430482279228 0.8266430482279228 0.8266430482279228 0.8266430482279228 0.8232515443160948 0.8232515443160948 
0.8232515443160948 0.8232515443160948 0.8166110426667055 0.8166110426667055 0.8166110426667055 0.8166110426667055 0.8067477503060088 0.8067477503060088 0.8067477503060088 
0.8067477503060088 0.7937005931428429 0.7937005931428429 0.7937005931428429 0.7937005931428429 0.7775210623458515 0.7775210623458515 0.7775210623458515 0.7775210623458515 
0.7582730111313657 0.7582730111313657 0.7582730111313657 0.7582730111313657 0.7360324027639313 0.7360324027639313 0.7360324027639313 0.7360324027639313 0.7108870107640067 
0.7108870107640067 0.7108870107640067 0.7108870107640067 0.6829360725059788 0.6829360725059788 0.6829360725059788 0.6829360725059788 0.6522898975735827 0.6522898975735827 
0.6522898975735827 0.6522898975735827 0.6190694324183715 0.6190694324183715 0.6190694324183715 0.6190694324183715 0.5834057830393258 0.5834057830393258 0.5834057830393258 
0.5834057830393258 0.5454396975673731 0.5454396975673731 0.5454396975673731 0.5454396975673731 0.5053210107968167 0.5053210107968167 0.5053210107968167 0.5053210107968167 
0.4632080528558556 0.4632080528558556 0.4632080528558556 0.4632080528558556 0.4192670243499019 0.4192670243499019 0.4192670243499019 0.4192670243499019 0.3736713404437236 
0.3736713404437236 0.3736713404437236 0.3736713404437236 0.3266009464710097 0.3266009464710097 0.3266009464710097 0.3266009464710097 0.2782416077723546 0.2782416077723546 
0.2782416077723546 0.2782416077723546 0.2287841765643205 0.2287841765643205 0.2287841765643205 0.2287841765643205 0.1784238387329362 0.1784238387329362 0.1784238387329362 
0.1784238387329362 0.1273593435241701 0.1273593435241701 0.1273593435241701 0.1273593435241701 0.07579221917146457 0.07579221917146457 0.07579221917146457 0.07579221917146457 
0.02392597755585986 0.02392597755585986 0.02392597755585986 0.02392597755585986 -0.02803468896241845 -0.02803468896241845 -0.02803468896241845 -0.02803468896241845 -0.0798847153711934 
-0.0798847153711934 -0.0798847153711934 -0.0798847153711934 -0.1314194733042523 -0.1314194733042523 -0.1314194733042523 -0.1314194733042523 -0.1824355786160267 -0.1824355786160267 
-0.1824355786160267 -0.1824355786160267 -0.2327316940458916 -0.2327316940458916 -0.2327316940458916 -0.2327316940458916 -0.2821093238043539 -0.2821093238043539 -0.2821093238043539 
-0.2821093238043539 -0.3303735969452508 -0.3303735969452508 -0.3303735969452508 -0.3303735969452508 -0.3773340364323439 -0.3773340364323439 -0.3773340364323439 -0.3773340364323439 
-0.4228053108651622 -0.4228053108651622 -0.4228053108651622 -0.4228053108651622 -0.466607965897369 -0.466607965897369 -0.466607965897369 -0.466607965897369 -0.5085691324610812 
-0.5085691324610812 -0.5085691324610812 -0.5085691324610812 -0.548523209002105 -0.548523209002105 -0.548523209002105 -0.548523209002105 -0.5863125150336143 -0.5863125150336143 
-0.5863125150336143 -0.5863125150336143 -0.6217879134289946 -0.6217879134289946 -0.6217879134289946 -0.6217879134289946 -0.6548093989979478 -0.6548093989979478 -0.6548093989979478 
-0.6548093989979478 -0.6852466510230145 -0.6852466510230145 -0.6852466510230145 -0.6852466510230145 -0.7129795475759095 -0.7129795475759095 -0.7129795475759095 -0.7129795475759095 
-0.7378986395838939 -0.7378986395838939 -0.7378986395838939 -0.7378986395838939 -0.7599055827752621 -0.7599055827752621 -0.7599055827752621 -0.7599055827752621 -0.7789135257992543 
-0.7789135257992543 -0.7789135257992543 -0.7789135257992543 -0.7948474529886577 -0.7948474529886577 -0.7948474529886577 -0.7948474529886577 -0.8076444804123746 -0.8076444804123746 
-0.8076444804123746 -0.8076444804123746 -0.8172541040495688 -0.8172541040495688 -0.8172541040495688 -0.8172541040495688 -0.8236383991059646 -0.8236383991059646 -0.8236383991059646 
-0.8236383991059646 -0.8267721696856809 -0.8267721696856809 -0.8267721696856809 -0.8267721696856809 -0.8266430482279229 -0.8266430482279229 -0.8266430482279229 -0.8266430482279229 
-0.8232515443160948 -0.8232515443160948 -0.8232515443160948 -0.8232515443160948 -0.8166110426667057 -0.8166110426667057 -0.8166110426667057 -0.8166110426667057 -0.8067477503060091 
-0.8067477503060091 -0.8067477503060091 -0.8067477503060091 -0.7937005931428431 -0.7937005931428431 -0.7937005931428431 -0.7937005931428431 -0.7775210623458515 -0.7775210623458515 
-0.7775210623458515 -0.7775210623458515 -0.7582730111313656 -0.7582730111313656 -0.7582730111313656 -0.7582730111313656 -0.7360324027639311 -0.7360324027639311 -0.7360324027639311 
-0.7360324027639311 -0.7108870107640064 -0.7108870107640064 -0.7108870107640064 -0.7108870107640064 -0.6829360725059784 -0.6829360725059784 -0.6829360725059784 -0.6829360725059784 
-0.6522898975735821 -0.6522898975735821 -0.6522898975735821 -0.6522898975735821 -0.6190694324183714 -0.6190694324183714 -0.6190694324183714 -0.6190694324183714 -0.5834057830393252 
-0.5834057830393252 -0.5834057830393252 -0.5834057830393252 -0.545439697567373 -0.545439697567373 -0.545439697567373 -0.545439697567373 -0.5053210107968167 -0.5053210107968167 
-0.5053210107968167 -0.5053210107968167 -0.4668645303924906 -0.4668645303924906 -0.4668645303924906 -0.4668645303924906 -0.4225767614144143 -0.4225767614144143 -0.4225767614144143 
-0.4225767614144143 -0.3766212750159937 -0.3766212750159937 -0.3766212750159937 -0.3766212750159937 -0.3291794365069788 -0.3291794365069788 -0.3291794365069788 -0.3291794365069788 
-0.2804384771498509 -0.2804384771498509 -0.2804384771498509 -0.2804384771498509 -0.2305907552435652 -0.2305907552435652 -0.2305907552435652 -0.2305907552435652 -0.1798329969732286 
-0.1798329969732286 -0.1798329969732286 -0.1798329969732286 -0.1283655200217198 -0.1283655200217198 -0.1283655200217198 -0.1283655200217198 -0.07639144300731308 -0.07639144300731308 
-0.07639144300731308 -0.07639144300731308 -0.02411588386728715 -0.02411588386728715 -0.02411588386728715 -0.02411588386728715 0.02825484964886377 0.02825484964886377 0.02825484964886377 
0.02825484964886377 0.0805140741818634 0.0805140741818634 0.0805140741818634 0.0805140741818634 0.1324555464474489 0.1324555464474489 0.1324555464474489 0.1324555464474489 
0.1838742771843894 0.1838742771843894 0.1838742771843894 0.1838742771843894 0.2345673401534494 0.2345673401534494 0.2345673401534494 0.2345673401534494 0.2843346729945483 
0.2843346729945483 0.2843346729945483 0.2843346729945483 0.3329798667814929 0.3329798667814929 0.3329798667814929 0.3329798667814929 0.3803109411582826 0.3803109411582826 
0.3803109411582826 0.3803109411582826 0.4261411019978618 0.4261411019978618 0.4261411019978618 0.4261411019978618 0.4702894785932071 0.4702894785932071 0.4702894785932071 
0.4702894785932071 0.51258183747137 0.51258183747137 0.51258183747137 0.51258183747137 0.5528512700133994 0.5528512700133994 0.5528512700133994 0.5528512700133994 
0.5909388511664064 0.5909388511664064 0.5909388511664064 0.5909388511664064 0.6266942666481401 0.6266942666481401 0.6266942666481401 0.6266942666481401 0.6599764061687901 
0.6599764061687901 0.6599764061687901 0.6599764061687901 0.6906539203288312 0.6906539203288312 0.6906539203288312 0.6906539203288312 0.7186057389950968 0.7186057389950968 
0.7186057389950968 0.7186057389950968 0.743721549109283 0.743721549109283 0.743721549109283 0.743721549109283 0.7659022300431905 0.7659022300431905 0.7659022300431905 
0.7659022300431905 0.7850602447825625 0.7850602447825625 0.7850602447825625 0.7850602447825625 0.8011199853956877 0.8011199853956877 0.8011199853956877 0.8011199853956877 
0.8140180714233634 0.8140180714233634 0.8140180714233634 0.8140180714233634 0.823703600012613 0.823703600012613 0.823703600012613 0.823703600012613 0.8301383468069919 
0.8301383468069919 0.8301383468069919 0.8301383468069919 0.8332969168006592 0.8332969168006592 0.8332969168006592 0.8332969168006592 0.8331668445608631 0.8331668445608631 
0.8331668445608631 0.8331668445608631 0.8297486434233097 0.8297486434233097 0.8297486434233097 0.8297486434233097 0.8230558034662613 0.8230558034662613 0.8230558034662613 
0.8230558034662613 0.8131147382713606 0.8131147382713606 0.8131147382713606 0.8131147382713606 0.7999646806812916 0.7999646806812916 0.7999646806812916 0.7999646806812916 
0.7836575279656719 0.7836575279656719 0.7836575279656719 0.7836575279656719 0.7642576370062413 0.7642576370062413 0.7642576370062413 0.7642576370062413 0.7418415703096493 
0.7418415703096493 0.7418415703096493 0.7418415703096493 0.7164977938502202 0.7164977938502202 0.7164977938502202 0.7164977938502202 0.6883263279351695 0.6883263279351695 
0.6883263279351695 0.6883263279351695 0.6574383524701448 0.6574383524701448 0.6574383524701448 0.6574383524701448 0.6239557681829342 0.6239557681829342 0.6239557681829342 
0.6239557681829342 0.5880107155369808 0.5880107155369808 0.5880107155369808 0.5880107155369808 0.5497450532333455 0.5497450532333455 0.5497450532333455 0.5497450532333455 
0.5093097983592232 0.5093097983592232 0.5093097983592232 0.5093097983592232 0.4668645303924906 0.4668645303924906 0.4668645303924906 0.4668645303924906 0.4225767614144141 
0.4225767614144141 0.4225767614144141 0.4225767614144141 0.3766212750159937 0.3766212750159937 0.3766212750159937 0.3766212750159937 0.3291794365069787 0.3291794365069787 
0.3291794365069787 0.3291794365069787 0.2804384771498505 0.2804384771498505 0.2804384771498505 0.2804384771498505 0.2305907552435643 0.2305907552435643 0.2305907552435643 
0.2305907552435643 0.1798329969732286 0.1798329969732286 0.1798329969732286 0.1798329969732286 0.1283655200217186 0.1283655200217186 0.1283655200217186 0.1283655200217186 
0.07639144300731328 0.07639144300731328 0.07639144300731328 0.07639144300731328 0.02411588386728729 0.02411588386728729 0.02411588386728729 0.02411588386728729 -0.02825484964886355 
-0.02825484964886355 -0.02825484964886355 -0.02825484964886355 -0.08051407418186314 -0.08051407418186314 -0.08051407418186314 -0.08051407418186314 -0.1324555464474474 -0.1324555464474474 
-0.1324555464474474 -0.1324555464474474 -0.1838742771843896 -0.1838742771843896 -0.1838742771843896 -0.1838742771843896 -0.2345673401534493 -0.2345673401534493 -0.2345673401534493 
-0.2345673401534493 -0.2843346729945477 -0.2843346729945477 -0.2843346729945477 -0.2843346729945477 -0.3329798667814929 -0.3329798667814929 -0.3329798667814929 -0.3329798667814929 
-0.3803109411582827 -0.3803109411582827 -0.3803109411582827 -0.3803109411582827 -0.4261411019978623 -0.4261411019978623 -0.4261411019978623 -0.4261411019978623 -0.4702894785932077 
-0.4702894785932077 -0.4702894785932077 -0.4702894785932077 -0.5125818374713705 -0.5125818374713705 -0.5125818374713705 -0.5125818374713705 -0.5528512700134003 -0.5528512700134003 
-0.5528512700134003 -0.5528512700134003 -0.5909388511664069 -0.5909388511664069 -0.5909388511664069 -0.5909388511664069 -0.6266942666481408 -0.6266942666481408 -0.6266942666481408 
-0.6266942666481408 -0.6599764061687903 -0.6599764061687903 -0.6599764061687903 -0.6599764061687903 -0.6906539203288311 -0.6906539203288311 -0.6906539203288311 -0.6906539203288311 
-0.7186057389950969 -0.7186057389950969 -0.7186057389950969 -0.7186057389950969 -0.7437215491092828 -0.7437215491092828 -0.7437215491092828 -0.7437215491092828 -0.7659022300431904 