Title = RSC/Post/Linear_Advection_2D/Sine_Wave_2D/Quad100/
FileType = Solution
Variables = q
Zone T = RSC/Post/Linear_Advection_2D/Sine_Wave_2D/Quad100/
ZoneType = FETriangle
Nodes = 40000
Elements = 20000
DataPacking = Block
StrandID = 8
SolutionTime = 0.7000000000000001
-0.6324968519121288 -0.6324968519121288 -0.6324968519121288 -0.6324968519121288 -0.6168197979189244 -0.6168197979189244 -0.6168197979189244 -0.6168197979189244 -0.5987084379814946 -0.5987084379814946 
-0.5987084379814946 -0.5987084379814946 -0.5782342493632192 -0.5782342493632192 -0.5782342493632192 -0.5782342493632192 -0.5554780343328083 -0.5554780343328083 -0.5554780343328083 
-0.5554780343328083 -0.5305296012746595 -0.5305296012746595 -0.5305296012746595 -0.5305296012746595 -0.5034874102561994 -0.5034874102561994 -0.5034874102561994 -0.5034874102561994 
-0.4744581844509757 -0.4744581844509757 -0.4744581844509757 -0.4744581844509757 -0.4435564889510498 -0.4435564889510498 -0.4435564889510498 -0.4435564889510498 -0.4109042786309186 
-0.4109042786309186 -0.4109042786309186 -0.4109042786309186 -0.3766304168473392 -0.3766304168473392 -0.3766304168473392 -0.3766304168473392 -0.3408701668745339 -0.3408701668745339 
-0.3408701668745339 -0.3408701668745339 -0.3037646580818407 -0.3037646580818407 -0.3037646580818407 -0.3037646580818407 -0.2654603289605703 -0.2654603289605703 -0.2654603289605703 
-0.2654603289605703 -0.2261083491981808 -0.2261083491981808 -0.2261083491981808 -0.2261083491981808 -0.1858640230805848 -0.1858640230805848 -0.1858640230805848 -0.1858640230805848 
-0.1448861765770852 -0.1448861765770852 -0.1448861765770852 -0.1448861765770852 -0.1033365305268331 -0.1033365305268331 -0.1033365305268331 -0.1033365305268331 -0.06137906240056175 
-0.06137906240056175 -0.06137906240056175 -0.06137906240056175 -0.0191793591564213 -0.0191793591564213 -0.0191793591564213 -0.0191793591564213 0.02309603625609323 0.02309603625609323 
0.02309603625609323 0.02309603625609323 0.0652802821650804 0.0652802821650804 0.0652802821650804 0.0652802821650804 0.1072068966240861 0.1072068966240861 0.1072068966240861 
0.1072068966240861 0.1487104144402886 0.1487104144402886 0.1487104144402886 0.1487104144402886 0.1896270401900212 0.1896270401900212 0.1896270401900212 0.1896270401900212 
0.2297952946444781 0.2297952946444781 0.2297952946444781 0.2297952946444781 0.2690566520544571 0.2690566520544571 0.2690566520544571 0.2690566520544571 0.3072561657790688 
0.3072561657790688 0.3072561657790688 0.3072561657790688 0.3442430797893403 0.3442430797893403 0.3442430797893403 0.3442430797893403 0.3798714236333872 0.3798714236333872 
0.3798714236333872 0.3798714236333872 0.4140005885150986 0.4140005885150986 0.4140005885150986 0.4140005885150986 0.4464958822128179 0.4464958822128179 0.4464958822128179 
0.4464958822128179 0.4772290606480083 0.4772290606480083 0.4772290606480083 0.4772290606480083 0.5060788340060403 0.5060788340060403 0.5060788340060403 0.5060788340060403 
0.5329313454116771 0.5329313454116771 0.5329313454116771 0.5329313454116771 0.5576806202701463 0.5576806202701463 0.5576806202701463 0.5576806202701463 0.5802289845004499 
0.5802289845004499 0.5802289845004499 0.5802289845004499 0.6004874500103381 0.6004874500103381 0.6004874500103381 0.6004874500103381 0.6183760658916562 0.6183760658916562 
0.6183760658916562 0.6183760658916562 0.6338242339500516 0.6338242339500516 0.6338242339500516 0.6338242339500516 0.6467709873237946 0.6467709873237946 0.6467709873237946 
0.6467709873237946 0.6571652310921281 0.6571652310921281 0.6571652310921281 0.6571652310921281 0.6649659439235791 0.6649659439235791 0.6649659439235791 0.6649659439235791 
0.670142339968403 0.670142339968403 0.670142339968403 0.670142339968403 0.6726739903562839 0.6726739903562839 0.6726739903562839 0.6726739903562839 0.6725509038197434 
0.6725509038197434 0.6725509038197434 0.6725509038197434 0.6697735661251075 0.6697735661251075 0.6697735661251075 0.6697735661251075 0.6643529381554119 0.6643529381554119 
0.6643529381554119 0.6643529381554119 0.6563104126528039 0.6563104126528039 0.6563104126528039 0.6563104126528039 0.6456777297911616 0.6456777297911616 0.6456777297911616 
0.6456777297911616 0.632496851912129 0.632496851912129 0.632496851912129 0.632496851912129 0.6168197979189247 0.6168197979189247 0.6168197979189247 0.6168197979189247 
0.5987084379814949 0.5987084379814949 0.5987084379814949 0.5987084379814949 0.5782342493632194 0.5782342493632194 0.5782342493632194 0.5782342493632194 0.5554780343328076 
0.5554780343328076 0.5554780343328076 0.5554780343328076 0.5305296012746589 0.5305296012746589 0.5305296012746589 0.5305296012746589 0.5034874102561987 0.5034874102561987 
0.5034874102561987 0.5034874102561987 0.4744581844509747 0.4744581844509747 0.4744581844509747 0.4744581844509747 0.4435564889510507 0.4435564889510507 0.4435564889510507 
0.4435564889510507 0.410904278630919 0.410904278630919 0.410904278630919 0.410904278630919 0.3766304168473396 0.3766304168473396 0.3766304168473396 0.3766304168473396 
0.340870166874534 0.340870166874534 0.340870166874534 0.340870166874534 0.3037646580818408 0.3037646580818408 0.3037646580818408 0.3037646580818408 0.2654603289605704 
0.2654603289605704 0.2654603289605704 0.2654603289605704 0.2261083491981818 0.2261083491981818 0.2261083491981818 0.2261083491981818 0.1858640230805856 0.1858640230805856 
0.1858640230805856 0.1858640230805856 0.1448861765770852 0.1448861765770852 0.1448861765770852 0.1448861765770852 0.1033365305268333 0.1033365305268333 0.1033365305268333 
0.1033365305268333 0.06137906240056173 0.06137906240056173 0.06137906240056173 0.06137906240056173 0.0191793591564218 0.0191793591564218 0.0191793591564218 0.0191793591564218 
-0.02309603625609323 -0.02309603625609323 -0.02309603625609323 -0.02309603625609323 -0.06528028216508031 -0.06528028216508031 -0.06528028216508031 -0.06528028216508031 -0.1072068966240863 
-0.1072068966240863 -0.1072068966240863 -0.1072068966240863 -0.1487104144402887 -0.1487104144402887 -0.1487104144402887 -0.1487104144402887 -0.1896270401900214 -0.1896270401900214 
-0.1896270401900214 -0.1896270401900214 -0.2297952946444781 -0.2297952946444781 -0.2297952946444781 -0.2297952946444781 -0.2690566520544569 -0.2690566520544569 -0.2690566520544569 
-0.2690566520544569 -0.3072561657790688 -0.3072561657790688 -0.3072561657790688 -0.3072561657790688 -0.3442430797893406 -0.3442430797893406 -0.3442430797893406 -0.3442430797893406 
-0.3798714236333872 -0.3798714236333872 -0.3798714236333872 -0.3798714236333872 -0.4140005885150982 -0.4140005885150982 -0.4140005885150982 -0.4140005885150982 -0.4464958822128178 
-0.4464958822128178 -0.4464958822128178 -0.4464958822128178 -0.4772290606480092 -0.4772290606480092 -0.4772290606480092 -0.4772290606480092 -0.5060788340060409 -0.5060788340060409 
-0.5060788340060409 -0.5060788340060409 -0.5329313454116777 -0.5329313454116777 -0.5329313454116777 -0.5329313454116777 -0.5576806202701465 -0.5576806202701465 -0.5576806202701465 
-0.5576806202701465 -0.58022898450045 -0.58022898450045 -0.58022898450045 -0.58022898450045 -0.600487450010338 -0.600487450010338 -0.600487450010338 -0.600487450010338 
-0.6183760658916562 -0.6183760658916562 -0.6183760658916562 -0.6183760658916562 -0.6338242339500515 -0.6338242339500515 -0.6338242339500515 -0.6338242339500515 -0.6467709873237948 
-0.6467709873237948 -0.6467709873237948 -0.6467709873237948 -0.6571652310921281 -0.6571652310921281 -0.6571652310921281 -0.6571652310921281 -0.6649659439235776 -0.6649659439235776 
-0.6649659439235776 -0.6649659439235776 -0.6701423399684027 -0.6701423399684027 -0.6701423399684027 -0.6701423399684027 -0.6726739903562848 -0.6726739903562848 -0.6726739903562848 
-0.6726739903562848 -0.6725509038197438 -0.6725509038197438 -0.6725509038197438 -0.6725509038197438 -0.6697735661251075 -0.6697735661251075 -0.6697735661251075 -0.6697735661251075 
-0.6643529381554119 -0.6643529381554119 -0.6643529381554119 -0.6643529381554119 -0.6563104126528039 -0.6563104126528039 -0.6563104126528039 -0.6563104126528039 -0.6456777297911614 
-0.6456777297911614 -0.6456777297911614 -0.6456777297911614 -0.658155405147163 -0.658155405147163 -0.658155405147163 -0.658155405147163 -0.6418424768398774 -0.6418424768398774 
-0.6418424768398774 -0.6418424768398774 -0.62299648950644 -0.62299648950644 -0.62299648950644 -0.62299648950644 -0.6016918196489434 -0.6016918196489434 -0.6016918196489434 
-0.6016918196489434 -0.5780125470661377 -0.5780125470661377 -0.5780125470661377 -0.5780125470661377 -0.5520521230288754 -0.5520521230288754 -0.5520521230288754 -0.5520521230288754 
-0.5239130014706431 -0.5239130014706431 -0.5239130014706431 -0.5239130014706431 -0.4937062346486887 -0.4937062346486887 -0.4937062346486887 -0.4937062346486887 -0.4615510348714995 
-0.4615510348714995 -0.4615510348714995 -0.4615510348714995 -0.4275743040222828 -0.4275743040222828 -0.4275743040222828 -0.4275743040222828 -0.3919101327352084 -0.3919101327352084 
-0.3919101327352084 -0.3919101327352084 -0.3546992712009367 -0.3546992712009367 -0.3546992712009367 -0.3546992712009367 -0.3160885736899177 -0.3160885736899177 -0.3160885736899177 
-0.3160885736899177 -0.2762304189856782 -0.2762304189856782 -0.2762304189856782 -0.2762304189856782 -0.2352821090153763 -0.2352821090153763 -0.2352821090153763 -0.2352821090153763 
-0.1934052480509616 -0.1934052480509616 -0.1934052480509616 -0.1934052480509616 -0.1507651049309431 -0.1507651049309431 -0.1507651049309431 -0.1507651049309431 -0.1075299608197865 
-0.1075299608197865 -0.1075299608197865 -0.1075299608197865 -0.06387044507904049 -0.06387044507904049 -0.06387044507904049 -0.06387044507904049 -0.01995886187119771 -0.01995886187119771 
-0.01995886187119771 -0.01995886187119771 0.02403148984611341 0.02403148984611341 0.02403148984611341 0.02403148984611341 0.06792700025194541 0.06792700025194541 0.06792700025194541 
0.06792700025194541 0.1115544338206775 0.1115544338206775 0.1115544338206775 0.1115544338206775 0.1547416130034922 0.1547416130034922 0.1547416130034922 0.1547416130034922 
0.1973180977345007 0.1973180977345007 0.1973180977345007 0.1973180977345007 0.2391158580798154 0.2391158580798154 0.2391158580798154 0.2391158580798154 0.2799699373749327 
0.2799699373749327 0.2799699373749327 0.2799699373749327 0.3197191032333294 0.3197191032333294 0.3197191032333294 0.3197191032333294 0.3582064838570283 0.3582064838570283 
0.3582064838570283 0.3582064838570283 0.3952801871379195 0.3952801871379195 0.3952801871379195 0.3952801871379195 0.4307939001065176 0.4307939001065176 0.4307939001065176 
0.4307939001065176 0.4646074663624072 0.4646074663624072 0.4646074663624072 0.4646074663624072 0.4965874392075249 0.4965874392075249 0.4965874392075249 0.4965874392075249 
0.5266076082993115 0.5266076082993115 0.5266076082993115 0.5266076082993115 0.5545494977452721 0.5545494977452721 0.5545494977452721 0.5545494977452721 0.5803028336731987 
0.5803028336731987 0.5803028336731987 0.5803028336731987 0.6037659794317638 0.6037659794317638 0.6037659794317638 0.6037659794317638 0.6248463367039501 0.6248463367039501 
0.6248463367039501 0.6248463367039501 0.6434607109503031 0.6434607109503031 0.6434607109503031 0.6434607109503031 0.6595356397397713 0.6595356397397713 0.6595356397397713 
0.6595356397397713 0.6730076826723589 0.6730076826723589 0.6730076826723589 0.6730076826723589 0.6838236717494024 0.6838236717494024 0.6838236717494024 0.6838236717494024 
0.6919409212033708 0.6919409212033708 0.6919409212033708 0.6919409212033708 0.697327395959086 0.697327395959086 0.697327395959086 0.697327395959086 0.6999618380615338 
0.6999618380615338 0.6999618380615338 0.6999618380615338 0.699833850571298 0.699833850571298 0.699833850571298 0.699833850571298 0.6969439385965317 0.6969439385965317 
0.6969439385965317 0.6969439385965317 0.6913035072995228 0.6913035072995228 0.6913035072995228 0.6913035072995228 0.6829348168857337 0.6829348168857337 0.6829348168857337 
0.6829348168857337 0.6718708947529362 0.6718708947529362 0.6718708947529362 0.6718708947529362 0.6581554051471632 0.6581554051471632 0.6581554051471632 0.6581554051471632 
0.6418424768398774 0.6418424768398774 0.6418424768398774 0.6418424768398774 0.6229964895064406 0.6229964895064406 0.6229964895064406 0.6229964895064406 0.6016918196489438 
0.6016918196489438 0.6016918196489438 0.6016918196489438 0.5780125470661379 0.5780125470661379 0.5780125470661379 0.5780125470661379 0.5520521230288757 0.5520521230288757 
0.5520521230288757 0.5520521230288757 0.523913001470643 0.523913001470643 0.523913001470643 0.523913001470643 0.4937062346486882 0.4937062346486882 0.4937062346486882 
0.4937062346486882 0.4615510348714998 0.4615510348714998 0.4615510348714998 0.4615510348714998 0.4275743040222831 0.4275743040222831 0.4275743040222831 0.4275743040222831 
0.3919101327352088 0.3919101327352088 0.3919101327352088 0.3919101327352088 0.3546992712009369 0.3546992712009369 0.3546992712009369 0.3546992712009369 0.3160885736899182 
0.3160885736899182 0.3160885736899182 0.3160885736899182 0.2762304189856786 0.2762304189856786 0.2762304189856786 0.2762304189856786 0.2352821090153772 0.2352821090153772 
0.2352821090153772 0.2352821090153772 0.1934052480509624 0.1934052480509624 0.1934052480509624 0.1934052480509624 0.1507651049309425 0.1507651049309425 0.1507651049309425 
0.1507651049309425 0.1075299608197863 0.1075299608197863 0.1075299608197863 0.1075299608197863 0.06387044507903961 0.06387044507903961 0.06387044507903961 0.06387044507903961 
0.01995886187119793 0.01995886187119793 0.01995886187119793 0.01995886187119793 -0.02403148984611432 -0.02403148984611432 -0.02403148984611432 -0.02403148984611432 -0.06792700025194533 
-0.06792700025194533 -0.06792700025194533 -0.06792700025194533 -0.1115544338206776 -0.1115544338206776 -0.1115544338206776 -0.1115544338206776 -0.1547416130034915 -0.1547416130034915 
-0.1547416130034915 -0.1547416130034915 -0.1973180977345002 -0.1973180977345002 -0.1973180977345002 -0.1973180977345002 -0.2391158580798146 -0.2391158580798146 -0.2391158580798146 
-0.2391158580798146 -0.2799699373749326 -0.2799699373749326 -0.2799699373749326 -0.2799699373749326 -0.3197191032333296 -0.3197191032333296 -0.3197191032333296 -0.3197191032333296 
-0.3582064838570286 -0.3582064838570286 -0.3582064838570286 -0.3582064838570286 -0.39528018713792 -0.39528018713792 -0.39528018713792 -0.39528018713792 -0.4307939001065177 
-0.4307939001065177 -0.4307939001065177 -0.4307939001065177 -0.464607466362407 -0.464607466362407 -0.464607466362407 -0.464607466362407 -0.4965874392075247 -0.4965874392075247 
-0.4965874392075247 -0.4965874392075247 -0.5266076082993112 -0.5266076082993112 -0.5266076082993112 -0.5266076082993112 -0.5545494977452718 -0.5545494977452718 -0.5545494977452718 
-0.5545494977452718 -0.5803028336731983 -0.5803028336731983 -0.5803028336731983 -0.5803028336731983 -0.6037659794317639 -0.6037659794317639 -0.6037659794317639 -0.6037659794317639 
-0.6248463367039501 -0.6248463367039501 -0.6248463367039501 -0.6248463367039501 -0.6434607109503033 -0.6434607109503033 -0.6434607109503033 -0.6434607109503033 -0.6595356397397714 
-0.6595356397397714 -0.6595356397397714 -0.6595356397397714 -0.6730076826723597 -0.6730076826723597 -0.6730076826723597 -0.6730076826723597 -0.6838236717494027 -0.6838236717494027 
-0.6838236717494027 -0.6838236717494027 -0.6919409212033704 -0.6919409212033704 -0.6919409212033704 -0.6919409212033704 -0.6973273959590855 -0.6973273959590855 -0.6973273959590855 
-0.6973273959590855 -0.6999618380615338 -0.6999618380615338 -0.6999618380615338 -0.6999618380615338 -0.6998338505712984 -0.6998338505712984 -0.6998338505712984 -0.6998338505712984 
-0.6969439385965318 -0.6969439385965318 -0.6969439385965318 -0.6969439385965318 -0.6913035072995231 -0.6913035072995231 -0.6913035072995231 -0.6913035072995231 -0.6829348168857337 
-0.6829348168857337 -0.6829348168857337 -0.6829348168857337 -0.6718708947529362 -0.6718708947529362 -0.6718708947529362 -0.6718708947529362 -0.6812165196806848 -0.6812165196806848 
-0.6812165196806848 -0.6812165196806848 -0.6643320967346787 -0.6643320967346787 -0.6643320967346787 -0.6643320967346787 -0.6448258585073262 -0.6448258585073262 -0.6448258585073262 
-0.6448258585073262 -0.622774787209358 -0.622774787209358 -0.622774787209358 -0.622774787209358 -0.5982659083450113 -0.5982659083450113 -0.5982659083450113 -0.5982659083450113 
-0.5713959472621213 -0.5713959472621213 -0.5713959472621213 -0.5713959472621213 -0.5422709474213649 -0.5422709474213649 -0.5422709474213649 -0.5422709474213649 -0.5110058518911669 
-0.5110058518911669 -0.5110058518911669 -0.5110058518911669 -0.4777240497199214 -0.4777240497199214 -0.4777240497199214 -0.4777240497199214 -0.4425568889757894 -0.4425568889757894 
-0.4425568889757894 -0.4425568889757894 -0.4056431583758801 -0.4056431583758801 -0.4056431583758801 -0.4056431583758801 -0.3671285395505925 -0.3671285395505925 -0.3671285395505925 
-0.3671285395505925 -0.327165032104774 -0.327165032104774 -0.327165032104774 -0.327165032104774 -0.2859103537447237 -0.2859103537447237 -0.2859103537447237 -0.2859103537447237 
-0.243527317838459 -0.243527317838459 -0.243527317838459 -0.243527317838459 -0.2001831908657342 -0.2001831908657342 -0.2001831908657342 -0.2001831908657342 -0.1560490322936632 
-0.1560490322936632 -0.1560490322936632 -0.1560490322936632 -0.1112990194831506 -0.1112990194831506 -0.1112990194831506 -0.1112990194831506 -0.06610976029042313 -0.06610976029042313 
-0.06610976029042313 -0.06610976029042313 -0.02065959607650529 -0.02065959607650529 -0.02065959607650529 -0.02065959607650529 0.02487210212465421 0.02487210212465421 0.02487210212465421 
0.02487210212465421 0.0703056415017104 0.0703056415017104 0.0703056415017104 0.0703056415017104 0.1154617166313516 0.1154617166313516 0.1154617166313516 0.1154617166313516 
0.1601621171148895 0.1601621171148895 0.1601621171148895 0.1601621171148895 0.2042304308932862 0.2042304308932862 0.2042304308932862 0.2042304308932862 0.247492740464956 
0.247492740464956 0.247492740464956 0.247492740464956 0.289778309258688 0.289778309258688 0.289778309258688 0.289778309258688 0.3309202554528931 0.3309202554528931 
0.3309202554528931 0.3309202554528931 0.3707562105819092 0.3707562105819092 0.3707562105819092 0.3707562105819092 0.4091289603301589 0.4091289603301589 0.4091289603301589 
0.4091289603301589 0.4458870649852286 0.4458870649852286 0.4458870649852286 0.4458870649852286 0.480885457101225 0.480885457101225 0.480885457101225 0.480885457101225 
0.51398601401371 0.51398601401371 0.51398601401371 0.51398601401371 0.5450581029467563 0.5450581029467563 0.5450581029467563 0.5450581029467563 0.5739790965608325 
0.5739790965608325 0.5739790965608325 0.5739790965608325 0.6006348569068891 0.6006348569068891 0.6006348569068891 0.6006348569068891 0.6249201858766986 0.6249201858766986 
0.6249201858766986 0.6249201858766986 0.6467392403717287 0.6467392403717287 0.6467392403717287 0.6467392403717287 0.6660059105520653 0.6660059105520653 0.6660059105520653 
0.6660059105520653 0.6826441596726106 0.6826441596726106 0.6826441596726106 0.6826441596726106 0.6965883241653794 0.6965883241653794 0.6965883241653794 0.6965883241653794 
0.707783372783601 0.707783372783601 0.707783372783601 0.707783372783601 0.7161851237849112 0.7161851237849112 0.7161851237849112 0.7161851237849112 0.7217604192965019 
0.7217604192965019 0.7217604192965019 0.7217604192965019 0.7244872561740996 0.7244872561740996 0.7244872561740996 0.7244872561740996 0.7243548728383212 0.7243548728383212 
0.7243548728383212 0.7243548728383212 0.7213637917457133 0.7213637917457133 0.7213637917457133 0.7213637917457133 0.7155258173268531 0.7155258173268531 0.7155258173268531 
0.7155258173268531 0.7068639893996551 0.7068639893996551 0.7068639893996551 0.7068639893996551 0.6954124922417353 0.6954124922417353 0.6954124922417353 0.6954124922417353 
0.6812165196806849 0.6812165196806849 0.6812165196806849 0.6812165196806849 0.6643320967346789 0.6643320967346789 0.6643320967346789 0.6643320967346789 0.6448258585073265 
0.6448258585073265 0.6448258585073265 0.6448258585073265 0.6227747872093581 0.6227747872093581 0.6227747872093581 0.6227747872093581 0.598265908345011 0.598265908345011 
0.598265908345011 0.598265908345011 0.5713959472621208 0.5713959472621208 0.5713959472621208 0.5713959472621208 0.5422709474213646 0.5422709474213646 0.5422709474213646 
0.5422709474213646 0.5110058518911665 0.5110058518911665 0.5110058518911665 0.5110058518911665 0.4777240497199214 0.4777240497199214 0.4777240497199214 0.4777240497199214 
0.4425568889757895 0.4425568889757895 0.4425568889757895 0.4425568889757895 0.4056431583758803 0.4056431583758803 0.4056431583758803 0.4056431583758803 0.3671285395505925 
0.3671285395505925 0.3671285395505925 0.3671285395505925 0.3271650321047745 0.3271650321047745 0.3271650321047745 0.3271650321047745 0.285910353744724 0.285910353744724 
0.285910353744724 0.285910353744724 0.2435273178384587 0.2435273178384587 0.2435273178384587 0.2435273178384587 0.2001831908657339 0.2001831908657339 0.2001831908657339 
0.2001831908657339 0.156049032293663 0.156049032293663 0.156049032293663 0.156049032293663 0.1112990194831507 0.1112990194831507 0.1112990194831507 0.1112990194831507 
0.06610976029042342 0.06610976029042342 0.06610976029042342 0.06610976029042342 0.02065959607650589 0.02065959607650589 0.02065959607650589 0.02065959607650589 -0.02487210212465422 
-0.02487210212465422 -0.02487210212465422 -0.02487210212465422 -0.07030564150171056 -0.07030564150171056 -0.07030564150171056 -0.07030564150171056 -0.1154617166313517 -0.1154617166313517 
-0.1154617166313517 -0.1154617166313517 -0.1601621171148894 -0.1601621171148894 -0.1601621171148894 -0.1601621171148894 -0.2042304308932863 -0.2042304308932863 -0.2042304308932863 
-0.2042304308932863 -0.2474927404649559 -0.2474927404649559 -0.2474927404649559 -0.2474927404649559 -0.2897783092586879 -0.2897783092586879 -0.2897783092586879 -0.2897783092586879 
-0.330920255452893 -0.330920255452893 -0.330920255452893 -0.330920255452893 -0.3707562105819089 -0.3707562105819089 -0.3707562105819089 -0.3707562105819089 -0.4091289603301592 
-0.4091289603301592 -0.4091289603301592 -0.4091289603301592 -0.4458870649852287 -0.4458870649852287 -0.4458870649852287 -0.4458870649852287 -0.4808854571012249 -0.4808854571012249 
-0.4808854571012249 -0.4808854571012249 -0.5139860140137096 -0.5139860140137096 -0.5139860140137096 -0.5139860140137096 -0.5450581029467557 -0.5450581029467557 -0.5450581029467557 
-0.5450581029467557 -0.5739790965608327 -0.5739790965608327 -0.5739790965608327 -0.5739790965608327 -0.6006348569068893 -0.6006348569068893 -0.6006348569068893 -0.6006348569068893 
-0.6249201858766988 -0.6249201858766988 -0.6249201858766988 -0.6249201858766988 -0.6467392403717288 -0.6467392403717288 -0.6467392403717288 -0.6467392403717288 -0.6660059105520654 
-0.6660059105520654 -0.6660059105520654 -0.6660059105520654 -0.6826441596726107 -0.6826441596726107 -0.6826441596726107 -0.6826441596726107 -0.6965883241653797 -0.6965883241653797 
-0.6965883241653797 -0.6965883241653797 -0.7077833727836015 -0.7077833727836015 -0.7077833727836015 -0.7077833727836015 -0.7161851237849113 -0.7161851237849113 -0.7161851237849113 
-0.7161851237849113 -0.7217604192965021 -0.7217604192965021 -0.7217604192965021 -0.7217604192965021 -0.7244872561740996 -0.7244872561740996 -0.7244872561740996 -0.7244872561740996 
-0.7243548728383213 -0.7243548728383213 -0.7243548728383213 -0.7243548728383213 -0.7213637917457133 -0.7213637917457133 -0.7213637917457133 -0.7213637917457133 -0.7155258173268533 
-0.7155258173268533 -0.7155258173268533 -0.7155258173268533 -0.7068639893996551 -0.7068639893996551 -0.7068639893996551 -0.7068639893996551 -0.6954124922417355 -0.6954124922417355 
-0.6954124922417355 -0.6954124922417355 -0.7015891838292513 -0.7015891838292513 -0.7015891838292513 -0.7015891838292513 -0.6841999013481337 -0.6841999013481337 -0.6841999013481337 
-0.6841999013481337 -0.6641103944375968 -0.6641103944375968 -0.6641103944375968 -0.6641103944375968 -0.6413999472033938 -0.6413999472033938 -0.6413999472033938 -0.6413999472033938 
-0.6161581874053421 -0.6161581874053421 -0.6161581874053421 -0.6161581874053421 -0.5884847327375006 -0.5884847327375006 -0.5884847327375006 -0.5884847327375006 -0.5584887976826451 
-0.5584887976826451 -0.5584887976826451 -0.5584887976826451 -0.5262887624925977 -0.5262887624925977 -0.5262887624925977 -0.5262887624925977 -0.4920117059954568 -0.4920117059954568 
-0.4920117059954568 -0.4920117059954568 -0.4557929040735189 -0.4557929040735189 -0.4557929040735189 -0.4557929040735189 -0.4177752957911732 -0.4177752957911732 -0.4177752957911732 
-0.4177752957911732 -0.3781089192797174 -0.3781089192797174 -0.3781089192797174 -0.3781089192797174 -0.3369503196053982 -0.3369503196053982 -0.3369503196053982 -0.3369503196053982 
-0.2944619309575547 -0.2944619309575547 -0.2944619309575547 -0.2944619309575547 -0.2508114355950817 -0.2508114355950817 -0.2508114355950817 -0.2508114355950817 -0.2061711020811602 
-0.2061711020811602 -0.2061711020811602 -0.2061711020811602 -0.160717105417942 -0.160717105417942 -0.160717105417942 -0.160717105417942 -0.1146288317642996 -0.1146288317642996 
-0.1146288317642996 -0.1146288317642996 -0.06808817048061605 -0.06808817048061605 -0.06808817048061605 -0.06808817048061605 -0.02127879629457061 -0.02127879629457061 -0.02127879629457061 
-0.02127879629457061 0.02561455557909151 0.02561455557909151 0.02561455557909151 0.02561455557909151 0.07240681850406021 0.07240681850406021 0.07240681850406021 0.07240681850406021 
0.1189133247959224 0.1189133247959224 0.1189133247959224 0.1189133247959224 0.1649505345211454 0.1649505345211454 0.1649505345211454 0.1649505345211454 0.2103367598453446 
0.2103367598453446 0.2103367598453446 0.2103367598453446 0.2548928820721593 0.2548928820721593 0.2548928820721593 0.2548928820721593 0.2984430585429157 0.2984430585429157 
0.2984430585429157 0.2984430585429157 0.3408154166072677 0.3408154166072677 0.3408154166072677 0.3408154166072677 0.3818427319260236 0.3818427319260236 0.3818427319260236 
0.3818427319260236 0.4213630884292175 0.4213630884292175 0.4213630884292175 0.4213630884292175 0.459220517324866 0.459220517324866 0.459220517324866 0.459220517324866 
0.4952656126365317 0.4952656126365317 0.4952656126365317 0.4952656126365317 0.5293561208404562 0.5293561208404562 0.5293561208404562 0.5293561208404562 0.5613575022752311 
0.5613575022752311 0.5613575022752311 0.5613575022752311 0.5911434621083733 0.5911434621083733 0.5911434621083733 0.5911434621083733 0.6185964487643324 0.6185964487643324 
0.6185964487643324 0.6185964487643324 0.6436081178468542 0.6436081178468542 0.6436081178468542 0.6436081178468542 0.666079759724814 0.666079759724814 0.666079759724814 
0.666079759724814 0.6859226890940362 0.6859226890940362 0.6859226890940362 0.6859226890940362 0.7030585949776733 0.7030585949776733 0.7030585949776733 0.7030585949776733 
0.7174198497838526 0.7174198497838526 0.7174198497838526 0.7174198497838526 0.7289497762008874 0.7289497762008874 0.7289497762008874 0.7289497762008874 0.7376028708767328 
0.7376028708767328 0.7376028708767328 0.7376028708767328 0.7433449839999252 0.7433449839999252 0.7433449839999252 0.7433449839999252 0.7461534540732897 0.7461534540732897 
0.7461534540732897 0.7461534540732897 0.7460171973485146 0.7460171973485146 0.7460171973485146 0.7460171973485146 0.7429367515686427 0.7429367515686427 0.7429367515686427 
0.7429367515686427 0.736924273845845 0.736924273845845 0.736924273845845 0.736924273845845 0.7280034926828545 0.7280034926828545 0.7280034926828545 0.7280034926828545 
0.7162096143274038 0.7162096143274038 0.7162096143274038 0.7162096143274038 0.7015891838292513 0.7015891838292513 0.7015891838292513 0.7015891838292513 0.6841999013481336 
0.6841999013481336 0.6841999013481336 0.6841999013481336 0.664110394437597 0.664110394437597 0.664110394437597 0.664110394437597 0.6413999472033938 0.6413999472033938 
0.6413999472033938 0.6413999472033938 0.6161581874053419 0.6161581874053419 0.6161581874053419 0.6161581874053419 0.5884847327375002 0.5884847327375002 0.5884847327375002 
0.5884847327375002 0.5584887976826451 0.5584887976826451 0.5584887976826451 0.5584887976826451 0.5262887624925967 0.5262887624925967 0.5262887624925967 0.5262887624925967 
0.4920117059954568 0.4920117059954568 0.4920117059954568 0.4920117059954568 0.455792904073519 0.455792904073519 0.455792904073519 0.455792904073519 0.4177752957911734 
0.4177752957911734 0.4177752957911734 0.4177752957911734 0.3781089192797176 0.3781089192797176 0.3781089192797176 0.3781089192797176 0.3369503196053996 0.3369503196053996 
0.3369503196053996 0.3369503196053996 0.2944619309575546 0.2944619309575546 0.2944619309575546 0.2944619309575546 0.2508114355950821 0.2508114355950821 0.2508114355950821 
0.2508114355950821 0.2061711020811612 0.2061711020811612 0.2061711020811612 0.2061711020811612 0.1607171054179424 0.1607171054179424 0.1607171054179424 0.1607171054179424 
0.1146288317643002 0.1146288317643002 0.1146288317643002 0.1146288317643002 0.06808817048061629 0.06808817048061629 0.06808817048061629 0.06808817048061629 0.02127879629457059 
0.02127879629457059 0.02127879629457059 0.02127879629457059 -0.02561455557909165 -0.02561455557909165 -0.02561455557909165 -0.02561455557909165 -0.07240681850406074 -0.07240681850406074 
-0.07240681850406074 -0.07240681850406074 -0.1189133247959224 -0.1189133247959224 -0.1189133247959224 -0.1189133247959224 -0.1649505345211457 -0.1649505345211457 -0.1649505345211457 
-0.1649505345211457 -0.2103367598453448 -0.2103367598453448 -0.2103367598453448 -0.2103367598453448 -0.2548928820721589 -0.2548928820721589 -0.2548928820721589 -0.2548928820721589 
-0.2984430585429159 -0.2984430585429159 -0.2984430585429159 -0.2984430585429159 -0.3408154166072673 -0.3408154166072673 -0.3408154166072673 -0.3408154166072673 -0.3818427319260237 