Title = RSC/Post/Linear_Advection_2D/Sine_Wave_2D/Quad100/
FileType = Solution
Variables = q
Zone T = RSC/Post/Linear_Advection_2D/Sine_Wave_2D/Quad100/
ZoneType = FETriangle
Nodes = 40000
Elements = 20000
DataPacking = Block
StrandID = 3
SolutionTime = 0.2
0.4980011475404619 0.4980011475404619 0.4980011475404619 0.4980011475404619 0.4857317773528769 0.4857317773528769 0.4857317773528769 0.4857317773528769 0.471545445749821 0.471545445749821 
0.471545445749821 0.471545445749821 0.4554981397010127 0.4554981397010127 0.4554981397010127 0.4554981397010127 0.4376531905921107 0.4376531905921107 0.4376531905921107 
0.4376531905921107 0.4180810242846648 0.4180810242846648 0.4180810242846648 0.4180810242846648 0.3968588831774187 0.3968588831774187 0.3968588831774187 0.3968588831774187 
0.3740705213658487 0.3740705213658487 0.3740705213658487 0.3740705213658487 0.3498058741030129 0.3498058741030129 0.3498058741030129 0.3498058741030129 0.324160702866195 
0.324160702866195 0.324160702866195 0.324160702866195 0.2972362174301024 0.2972362174301024 0.2972362174301024 0.2972362174301024 0.2691386764381241 0.2691386764381241 
0.2691386764381241 0.2691386764381241 0.2399789680480097 0.2399789680480097 0.2399789680480097 0.2399789680480097 0.2098721723069716 0.2098721723069716 0.2098721723069716 
0.2098721723069716 0.1789371069833132 0.1789371069833132 0.1789371069833132 0.1789371069833132 0.1472958586469797 0.1472958586469797 0.1472958586469797 0.1472958586469797 
0.1150733008496437 0.1150733008496437 0.1150733008496437 0.1150733008496437 0.08239660130584414 0.08239660130584414 0.08239660130584414 0.08239660130584414 0.04939472002011691 
0.04939472002011691 0.04939472002011691 0.04939472002011691 0.01619790034077104 0.01619790034077104 0.01619790034077104 0.01619790034077104 -0.01706284505110264 -0.01706284505110264 
-0.01706284505110264 -0.01706284505110264 -0.05025625118883213 -0.05025625118883213 -0.05025625118883213 -0.05025625118883213 -0.08325131886301651 -0.08325131886301651 -0.08325131886301651 
-0.08325131886301651 -0.1159178316155582 -0.1159178316155582 -0.1159178316155582 -0.1159178316155582 -0.1481268696445333 -0.1481268696445333 -0.1481268696445333 -0.1481268696445333 
-0.1797513185917511 -0.1797513185917511 -0.1797513185917511 -0.1797513185917511 -0.2106663712050532 -0.2106663712050532 -0.2106663712050532 -0.2106663712050532 -0.240750019895519 
-0.240750019895519 -0.240750019895519 -0.240750019895519 -0.269883538245679 -0.269883538245679 -0.269883538245679 -0.269883538245679 -0.2979519495684438 -0.2979519495684438 
-0.2979519495684438 -0.2979519495684438 -0.3248444806675599 -0.3248444806675599 -0.3248444806675599 -0.3248444806675599 -0.3504549990088071 -0.3504549990088071 -0.3504549990088071 
-0.3504549990088071 -0.3746824315766258 -0.3746824315766258 -0.3746824315766258 -0.3746824315766258 -0.3974311637631323 -0.3974311637631323 -0.3974311637631323 -0.3974311637631323 
-0.4186114167152931 -0.4186114167152931 -0.4186114167152931 -0.4186114167152931 -0.4381396016510437 -0.4381396016510437 -0.4381396016510437 -0.4381396016510437 -0.4559386497460215 
-0.4559386497460215 -0.4559386497460215 -0.4559386497460215 -0.471938316289007 -0.471938316289007 -0.471938316289007 -0.471938316289007 -0.4860754579057076 -0.4860754579057076 
-0.4860754579057076 -0.4860754579057076 -0.4982942817568077 -0.4982942817568077 -0.4982942817568077 -0.4982942817568077 -0.5085465657268166 -0.5085465657268166 -0.5085465657268166 
-0.5085465657268166 -0.5167918487347278 -0.5167918487347278 -0.5167918487347278 -0.5167918487347278 -0.5229975904154227 -0.5229975904154227 -0.5229975904154227 -0.5229975904154227 
-0.5271392995416163 -0.5271392995416163 -0.5271392995416163 -0.5271392995416163 -0.5292006306795569 -0.5292006306795569 -0.5292006306795569 -0.5292006306795569 -0.5291734486969766 
-0.5291734486969766 -0.5291734486969766 -0.5291734486969766 -0.5270578608687423 -0.5270578608687423 -0.5270578608687423 -0.5270578608687423 -0.5228622164534917 -0.5228622164534917 
-0.5228622164534917 -0.5228622164534917 -0.5166030737429238 -0.5166030737429238 -0.5166030737429238 -0.5166030737429238 -0.508305134713787 -0.508305134713787 -0.508305134713787 
-0.508305134713787 -0.4980011475404618 -0.4980011475404618 -0.4980011475404618 -0.4980011475404618 -0.4857317773528767 -0.4857317773528767 -0.4857317773528767 -0.4857317773528767 
-0.471545445749821 -0.471545445749821 -0.471545445749821 -0.471545445749821 -0.4554981397010125 -0.4554981397010125 -0.4554981397010125 -0.4554981397010125 -0.4376531905921099 
-0.4376531905921099 -0.4376531905921099 -0.4376531905921099 -0.418081024284664 -0.418081024284664 -0.418081024284664 -0.418081024284664 -0.396858883177418 -0.396858883177418 
-0.396858883177418 -0.396858883177418 -0.3740705213658478 -0.3740705213658478 -0.3740705213658478 -0.3740705213658478 -0.3498058741030137 -0.3498058741030137 -0.3498058741030137 
-0.3498058741030137 -0.3241607028661954 -0.3241607028661954 -0.3241607028661954 -0.3241607028661954 -0.2972362174301026 -0.2972362174301026 -0.2972362174301026 -0.2972362174301026 
-0.2691386764381241 -0.2691386764381241 -0.2691386764381241 -0.2691386764381241 -0.2399789680480097 -0.2399789680480097 -0.2399789680480097 -0.2399789680480097 -0.2098721723069716 
-0.2098721723069716 -0.2098721723069716 -0.2098721723069716 -0.178937106983314 -0.178937106983314 -0.178937106983314 -0.178937106983314 -0.1472958586469804 -0.1472958586469804 
-0.1472958586469804 -0.1472958586469804 -0.1150733008496436 -0.1150733008496436 -0.1150733008496436 -0.1150733008496436 -0.08239660130584424 -0.08239660130584424 -0.08239660130584424 
-0.08239660130584424 -0.04939472002011684 -0.04939472002011684 -0.04939472002011684 -0.04939472002011684 -0.01619790034077141 -0.01619790034077141 -0.01619790034077141 -0.01619790034077141 
0.01706284505110259 0.01706284505110259 0.01706284505110259 0.01706284505110259 0.05025625118883202 0.05025625118883202 0.05025625118883202 0.05025625118883202 0.08325131886301654 
0.08325131886301654 0.08325131886301654 0.08325131886301654 0.1159178316155583 0.1159178316155583 0.1159178316155583 0.1159178316155583 0.1481268696445334 0.1481268696445334 
0.1481268696445334 0.1481268696445334 0.1797513185917511 0.1797513185917511 0.1797513185917511 0.1797513185917511 0.2106663712050531 0.2106663712050531 0.2106663712050531 
0.2106663712050531 0.2407500198955189 0.2407500198955189 0.2407500198955189 0.2407500198955189 0.269883538245679 0.269883538245679 0.269883538245679 0.269883538245679 
0.2979519495684437 0.2979519495684437 0.2979519495684437 0.2979519495684437 0.3248444806675595 0.3248444806675595 0.3248444806675595 0.3248444806675595 0.3504549990088068 
0.3504549990088068 0.3504549990088068 0.3504549990088068 0.3746824315766263 0.3746824315766263 0.3746824315766263 0.3746824315766263 0.3974311637631325 0.3974311637631325 
0.3974311637631325 0.3974311637631325 0.4186114167152933 0.4186114167152933 0.4186114167152933 0.4186114167152933 0.4381396016510438 0.4381396016510438 0.4381396016510438 
0.4381396016510438 0.4559386497460212 0.4559386497460212 0.4559386497460212 0.4559386497460212 0.4719383162890068 0.4719383162890068 0.4719383162890068 0.4719383162890068 
0.4860754579057072 0.4860754579057072 0.4860754579057072 0.4860754579057072 0.4982942817568075 0.4982942817568075 0.4982942817568075 0.4982942817568075 0.5085465657268162 
0.5085465657268162 0.5085465657268162 0.5085465657268162 0.5167918487347278 0.5167918487347278 0.5167918487347278 0.5167918487347278 0.5229975904154212 0.5229975904154212 
0.5229975904154212 0.5229975904154212 0.5271392995416158 0.5271392995416158 0.5271392995416158 0.5271392995416158 0.5292006306795579 0.5292006306795579 0.5292006306795579 
0.5292006306795579 0.5291734486969775 0.5291734486969775 0.5291734486969775 0.5291734486969775 0.5270578608687428 0.5270578608687428 0.5270578608687428 0.5270578608687428 
0.5228622164534921 0.5228622164534921 0.5228622164534921 0.5228622164534921 0.516603073742924 0.516603073742924 0.516603073742924 0.516603073742924 0.5083051347137872 
0.5083051347137872 0.5083051347137872 0.5083051347137872 0.4509656717255844 0.4509656717255844 0.4509656717255844 0.4509656717255844 0.4398551733461977 0.4398551733461977 
0.4398551733461977 0.4398551733461977 0.4270087675483277 0.4270087675483277 0.4270087675483277 0.4270087675483277 0.4124771532266939 0.4124771532266939 0.4124771532266939 
0.4124771532266939 0.3963176800241609 0.3963176800241609 0.3963176800241609 0.3963176800241609 0.3785941219988976 0.3785941219988976 0.3785941219988976 0.3785941219988976 
0.3593764259373066 0.3593764259373066 0.3593764259373066 0.3593764259373066 0.3387404353060125 0.3387404353060125 0.3387404353060125 0.3387404353060125 0.3167675909323497 
0.3167675909323497 0.3167675909323497 0.3167675909323497 0.2935446095946236 0.2935446095946236 0.2935446095946236 0.2935446095946236 0.2691631417906031 0.2691631417906031 
0.2691631417906031 0.2691631417906031 0.2437194100348777 0.2437194100348777 0.2437194100348777 0.2437194100348777 0.2173138291125516 0.2173138291125516 0.2173138291125516 
0.2173138291125516 0.1900506097879632 0.1900506097879632 0.1900506097879632 0.1900506097879632 0.1620373475324063 0.1620373475324063 0.1620373475324063 0.1620373475324063 
0.1333845978939613 0.1333845978939613 0.1333845978939613 0.1333845978939613 0.1042054401852555 0.1042054401852555 0.1042054401852555 0.1042054401852555 0.07461503121107532 
0.07461503121107532 0.07461503121107532 0.07461503121107532 0.04473015079707034 0.04473015079707034 0.04473015079707034 0.04473015079707034 0.01466874091313103 0.01466874091313103 
0.01466874091313103 0.01466874091313103 -0.01545055978968171 -0.01545055978968171 -0.01545055978968171 -0.01545055978968171 -0.04550888419169397 -0.04550888419169397 -0.04550888419169397 
-0.04550888419169397 -0.07538760581883311 -0.07538760581883311 -0.07538760581883311 -0.07538760581883311 -0.1049688070071263 -0.1049688070071263 -0.1049688070071263 -0.1049688070071263 
-0.1341357442698486 -0.1341357442698486 -0.1341357442698486 -0.1341357442698486 -0.1627733090307306 -0.1627733090307306 -0.1627733090307306 -0.1627733090307306 -0.1907684819049191 
-0.1907684819049191 -0.1907684819049191 -0.1907684819049191 -0.2180107787348582 -0.2180107787348582 -0.2180107787348582 -0.2180107787348582 -0.2443926866207816 -0.2443926866207816 
-0.2443926866207816 -0.2443926866207816 -0.2698100882250107 -0.2698100882250107 -0.2698100882250107 -0.2698100882250107 -0.2941626726755203 -0.2941626726755203 -0.2941626726755203 
-0.2941626726755203 -0.3173543314471213 -0.3173543314471213 -0.3173543314471213 -0.3173543314471213 -0.3392935376579028 -0.3392935376579028 -0.3392935376579028 -0.3392935376579028 
-0.3598937072840219 -0.3598937072840219 -0.3598937072840219 -0.3598937072840219 -0.3790735408672856 -0.3790735408672856 -0.3790735408672856 -0.3790735408672856 -0.3967573443669737 
-0.3967573443669737 -0.3967573443669737 -0.3967573443669737 -0.412875327889634 -0.412875327889634 -0.412875327889634 -0.412875327889634 -0.4273638811179089 -0.4273638811179089 
-0.4273638811179089 -0.4273638811179089 -0.4401658243513969 -0.4401658243513969 -0.4401658243513969 -0.4401658243513969 -0.451230634168807 -0.451230634168807 -0.451230634168807 
-0.451230634168807 -0.4605146428208203 -0.4605146428208203 -0.4605146428208203 -0.4605146428208203 -0.4679812105667477 -0.4679812105667477 -0.4679812105667477 -0.4679812105667477 
-0.4736008702748467 -0.4736008702748467 -0.4736008702748467 -0.4736008702748467 -0.4773514437156271 -0.4773514437156271 -0.4773514437156271 -0.4773514437156271 -0.479218129089192 
-0.479218129089192 -0.479218129089192 -0.479218129089192 -0.4791935594411794 -0.4791935594411794 -0.4791935594411794 -0.4791935594411794 -0.4772778317367657 -0.4772778317367657 
-0.4772778317367657 -0.4772778317367657 -0.4734785064779872 -0.4734785064779872 -0.4734785064779872 -0.4734785064779872 -0.467810577865894 -0.467810577865894 -0.467810577865894 
-0.467810577865894 -0.4602964146252876 -0.4602964146252876 -0.4602964146252876 -0.4602964146252876 -0.4509656717255842 -0.4509656717255842 -0.4509656717255842 -0.4509656717255842 
-0.4398551733461976 -0.4398551733461976 -0.4398551733461976 -0.4398551733461976 -0.4270087675483279 -0.4270087675483279 -0.4270087675483279 -0.4270087675483279 -0.4124771532266942 
-0.4124771532266942 -0.4124771532266942 -0.4124771532266942 -0.3963176800241609 -0.3963176800241609 -0.3963176800241609 -0.3963176800241609 -0.3785941219988974 -0.3785941219988974 
-0.3785941219988974 -0.3785941219988974 -0.3593764259373062 -0.3593764259373062 -0.3593764259373062 -0.3593764259373062 -0.3387404353060119 -0.3387404353060119 -0.3387404353060119 
-0.3387404353060119 -0.3167675909323498 -0.3167675909323498 -0.3167675909323498 -0.3167675909323498 -0.2935446095946238 -0.2935446095946238 -0.2935446095946238 -0.2935446095946238 
-0.2691631417906032 -0.2691631417906032 -0.2691631417906032 -0.2691631417906032 -0.2437194100348778 -0.2437194100348778 -0.2437194100348778 -0.2437194100348778 -0.2173138291125518 
-0.2173138291125518 -0.2173138291125518 -0.2173138291125518 -0.1900506097879635 -0.1900506097879635 -0.1900506097879635 -0.1900506097879635 -0.1620373475324068 -0.1620373475324068 
-0.1620373475324068 -0.1620373475324068 -0.1333845978939617 -0.1333845978939617 -0.1333845978939617 -0.1333845978939617 -0.104205440185255 -0.104205440185255 -0.104205440185255 
-0.104205440185255 -0.07461503121107516 -0.07461503121107516 -0.07461503121107516 -0.07461503121107516 -0.04473015079706977 -0.04473015079706977 -0.04473015079706977 -0.04473015079706977 
-0.01466874091313122 -0.01466874091313122 -0.01466874091313122 -0.01466874091313122 0.01545055978968227 0.01545055978968227 0.01545055978968227 0.01545055978968227 0.04550888419169383 
0.04550888419169383 0.04550888419169383 0.04550888419169383 0.07538760581883316 0.07538760581883316 0.07538760581883316 0.07538760581883316 0.1049688070071257 0.1049688070071257 
0.1049688070071257 0.1049688070071257 0.1341357442698482 0.1341357442698482 0.1341357442698482 0.1341357442698482 0.1627733090307298 0.1627733090307298 0.1627733090307298 
0.1627733090307298 0.1907684819049188 0.1907684819049188 0.1907684819049188 0.1907684819049188 0.2180107787348582 0.2180107787348582 0.2180107787348582 0.2180107787348582 
0.2443926866207818 0.2443926866207818 0.2443926866207818 0.2443926866207818 0.2698100882250111 0.2698100882250111 0.2698100882250111 0.2698100882250111 0.2941626726755203 
0.2941626726755203 0.2941626726755203 0.2941626726755203 0.3173543314471212 0.3173543314471212 0.3173543314471212 0.3173543314471212 0.3392935376579029 0.3392935376579029 
0.3392935376579029 0.3392935376579029 0.3598937072840217 0.3598937072840217 0.3598937072840217 0.3598937072840217 0.3790735408672853 0.3790735408672853 0.3790735408672853 
0.3790735408672853 0.396757344366973 0.396757344366973 0.396757344366973 0.396757344366973 0.4128753278896338 0.4128753278896338 0.4128753278896338 0.4128753278896338 
0.4273638811179085 0.4273638811179085 0.4273638811179085 0.4273638811179085 0.440165824351397 0.440165824351397 0.440165824351397 0.440165824351397 0.4512306341688067 
0.4512306341688067 0.4512306341688067 0.4512306341688067 0.4605146428208205 0.4605146428208205 0.4605146428208205 0.4605146428208205 0.4679812105667476 0.4679812105667476 
0.4679812105667476 0.4679812105667476 0.4736008702748463 0.4736008702748463 0.4736008702748463 0.4736008702748463 0.4773514437156269 0.4773514437156269 0.4773514437156269 
0.4773514437156269 0.4792181290891919 0.4792181290891919 0.4792181290891919 0.4792181290891919 0.4791935594411794 0.4791935594411794 0.4791935594411794 0.4791935594411794 
0.4772778317367657 0.4772778317367657 0.4772778317367657 0.4772778317367657 0.4734785064779874 0.4734785064779874 0.4734785064779874 0.4734785064779874 0.4678105778658942 
0.4678105778658942 0.4678105778658942 0.4678105778658942 0.4602964146252879 0.4602964146252879 0.4602964146252879 0.4602964146252879 0.4021504404310238 0.4021504404310238 
0.4021504404310238 0.4021504404310238 0.3922426619210351 0.3922426619210351 0.3922426619210351 0.3922426619210351 0.3807868808230707 0.3807868808230707 0.3807868808230707 
0.3807868808230707 0.3678283078714757 0.3678283078714757 0.3678283078714757 0.3678283078714757 0.3534180846334814 0.3534180846334814 0.3534180846334814 0.3534180846334814 
0.3376130816768029 0.3376130816768029 0.3376130816768029 0.3376130816768029 0.3204756741274917 0.3204756741274917 0.3204756741274917 0.3204756741274917 0.3020734955038077 
0.3020734955038077 0.3020734955038077 0.3020734955038077 0.2824791707976231 0.2824791707976231 0.2824791707976231 0.2824791707976231 0.2617700298567578 0.2617700298567578 
0.2617700298567578 0.2617700298567578 0.2400278021993988 0.2400278021993988 0.2400278021993988 0.2400278021993988 0.2173382944650307 0.2173382944650307 0.2173382944650307 
0.2173382944650307 0.1937910517748311 0.1937910517748311 0.1937910517748311 0.1937910517748311 0.1694790043379862 0.1694790043379862 0.1694790043379862 0.1694790043379862 
0.1444981006986113 0.1444981006986113 0.1444981006986113 0.1444981006986113 0.1189469290706818 0.1189469290706818 0.1189469290706818 0.1189469290706818 0.09292632825539328 
0.09292632825539328 0.09292632825539328 0.09292632825539328 0.06653898967648175 0.06653898967648175 0.06653898967648175 0.06653898967648175 0.03988905210408988 0.03988905210408988 
0.03988905210408988 0.03988905210408988 0.01308169066661726 0.01308169066661726 0.01308169066661726 0.01308169066661726 -0.01377729822746012 -0.01377729822746012 -0.01377729822746012 
-0.01377729822746012 -0.04058191441968262 -0.04058191441968262 -0.04058191441968262 -0.04058191441968262 -0.06722637233580375 -0.06722637233580375 -0.06722637233580375 -0.06722637233580375 
-0.09360551847312343 -0.09360551847312343 -0.09360551847312343 -0.09360551847312343 -0.1196152463933234 -0.1196152463933234 -0.1196152463933234 -0.1196152463933234 -0.1451529075830169 
-0.1451529075830169 -0.1451529075830169 -0.1451529075830169 -0.1701177165605357 -0.1701177165605357 -0.1701177165605357 -0.1701177165605357 -0.1944111486301822 -0.1944111486301822 
-0.1944111486301822 -0.1944111486301822 -0.2179373287141904 -0.2179373287141904 -0.2179373287141904 -0.2179373287141904 -0.2406034097278583 -0.2406034097278583 -0.2406034097278583 
-0.2406034097278583 -0.2623199390045726 -0.2623199390045726 -0.2623199390045726 -0.2623199390045726 -0.2830012113246166 -0.2830012113246166 -0.2830012113246166 -0.2830012113246166 
-0.3025656071545172 -0.3025656071545172 -0.3025656071545172 -0.3025656071545172 -0.320935914762056 -0.320935914762056 -0.320935914762056 -0.320935914762056 -0.3380396349357018 
-0.3380396349357018 -0.3380396349357018 -0.3380396349357018 -0.3538092671058755 -0.3538092671058755 -0.3538092671058755 -0.3538092671058755 -0.3681825757388608 -0.3681825757388608 
-0.3681825757388608 -0.3681825757388608 -0.3811028359520239 -0.3811028359520239 -0.3811028359520239 -0.3811028359520239 -0.3925190573810085 -0.3925190573810085 -0.3925190573810085 
-0.3925190573810085 -0.4023861854154095 -0.4023861854154095 -0.4023861854154095 -0.4023861854154095 -0.4106652790087378 -0.4106652790087378 -0.4106652790087378 -0.4106652790087378 
-0.4173236643609385 -0.4173236643609385 -0.4173236643609385 -0.4173236643609385 -0.4223350638669535 -0.4223350638669535 -0.4223350638669535 -0.4223350638669535 -0.4256796998224227 
-0.4256796998224227 -0.4256796998224227 -0.4256796998224227 -0.427344372477249 -0.427344372477249 -0.427344372477249 -0.427344372477249 -0.4273225121289799 -0.4273225121289799 
-0.4273225121289799 -0.4273225121289799 -0.4256142050504236 -0.4256142050504236 -0.4256142050504236 -0.4256142050504236 -0.4222261931491677 -0.4222261931491677 -0.4222261931491677 
-0.4222261931491677 -0.4171718473603508 -0.4171718473603508 -0.4171718473603508 -0.4171718473603508 -0.4104711148776911 -0.4104711148776911 -0.4104711148776911 -0.4104711148776911 
-0.4021504404310237 -0.4021504404310237 -0.4021504404310237 -0.4021504404310237 -0.3922426619210347 -0.3922426619210347 -0.3922426619210347 -0.3922426619210347 -0.3807868808230706 
-0.3807868808230706 -0.3807868808230706 -0.3807868808230706 -0.3678283078714755 -0.3678283078714755 -0.3678283078714755 -0.3678283078714755 -0.3534180846334812 -0.3534180846334812 
-0.3534180846334812 -0.3534180846334812 -0.3376130816768026 -0.3376130816768026 -0.3376130816768026 -0.3376130816768026 -0.3204756741274914 -0.3204756741274914 -0.3204756741274914 
-0.3204756741274914 -0.302073495503807 -0.302073495503807 -0.302073495503807 -0.302073495503807 -0.282479170797623 -0.282479170797623 -0.282479170797623 -0.282479170797623 
-0.2617700298567578 -0.2617700298567578 -0.2617700298567578 -0.2617700298567578 -0.2400278021993988 -0.2400278021993988 -0.2400278021993988 -0.2400278021993988 -0.2173382944650306 
-0.2173382944650306 -0.2173382944650306 -0.2173382944650306 -0.1937910517748314 -0.1937910517748314 -0.1937910517748314 -0.1937910517748314 -0.1694790043379861 -0.1694790043379861 
-0.1694790043379861 -0.1694790043379861 -0.1444981006986111 -0.1444981006986111 -0.1444981006986111 -0.1444981006986111 -0.1189469290706817 -0.1189469290706817 -0.1189469290706817 
-0.1189469290706817 -0.09292632825539313 -0.09292632825539313 -0.09292632825539313 -0.09292632825539313 -0.06653898967648175 -0.06653898967648175 -0.06653898967648175 -0.06653898967648175 
-0.03988905210409004 -0.03988905210409004 -0.03988905210409004 -0.03988905210409004 -0.01308169066661761 -0.01308169066661761 -0.01308169066661761 -0.01308169066661761 0.01377729822746012 
0.01377729822746012 0.01377729822746012 0.01377729822746012 0.04058191441968263 0.04058191441968263 0.04058191441968263 0.04058191441968263 0.06722637233580367 0.06722637233580367 
0.06722637233580367 0.06722637233580367 0.09360551847312321 0.09360551847312321 0.09360551847312321 0.09360551847312321 0.1196152463933233 0.1196152463933233 0.1196152463933233 
0.1196152463933233 0.1451529075830169 0.1451529075830169 0.1451529075830169 0.1451529075830169 0.1701177165605355 0.1701177165605355 0.1701177165605355 0.1701177165605355 
0.1944111486301821 0.1944111486301821 0.1944111486301821 0.1944111486301821 0.2179373287141902 0.2179373287141902 0.2179373287141902 0.2179373287141902 0.2406034097278583 
0.2406034097278583 0.2406034097278583 0.2406034097278583 0.2623199390045726 0.2623199390045726 0.2623199390045726 0.2623199390045726 0.2830012113246163 0.2830012113246163 
0.2830012113246163 0.2830012113246163 0.3025656071545167 0.3025656071545167 0.3025656071545167 0.3025656071545167 0.3209359147620558 0.3209359147620558 0.3209359147620558 
0.3209359147620558 0.3380396349357015 0.3380396349357015 0.3380396349357015 0.3380396349357015 0.3538092671058756 0.3538092671058756 0.3538092671058756 0.3538092671058756 
0.368182575738861 0.368182575738861 0.368182575738861 0.368182575738861 0.3811028359520238 0.3811028359520238 0.3811028359520238 0.3811028359520238 0.3925190573810082 
0.3925190573810082 0.3925190573810082 0.3925190573810082 0.4023861854154094 0.4023861854154094 0.4023861854154094 0.4023861854154094 0.4106652790087379 0.4106652790087379 
0.4106652790087379 0.4106652790087379 0.4173236643609384 0.4173236643609384 0.4173236643609384 0.4173236643609384 0.4223350638669531 0.4223350638669531 0.4223350638669531 
0.4223350638669531 0.4256796998224224 0.4256796998224224 0.4256796998224224 0.4256796998224224 0.4273443724772488 0.4273443724772488 0.4273443724772488 0.4273443724772488 
0.4273225121289801 0.4273225121289801 0.4273225121289801 0.4273225121289801 0.4256142050504239 0.4256142050504239 0.4256142050504239 0.4256142050504239 0.4222261931491675 
0.4222261931491675 0.4222261931491675 0.4222261931491675 0.417171847360351 0.417171847360351 0.417171847360351 0.417171847360351 0.4104711148776913 0.4104711148776913 
0.4104711148776913 0.4104711148776913 0.3517481050731418 0.3517481050731418 0.3517481050731418 0.3517481050731418 0.3430821479078965 0.3430821479078965 0.3430821479078965 
0.3430821479078965 0.3330622022441829 0.3330622022441829 0.3330622022441829 0.3330622022441829 0.3217278122298579 0.3217278122298579 0.3217278122298579 0.3217278122298579 
0.3091237095241178 0.3091237095241178 0.3091237095241178 0.3091237095241178 0.2952996367620753 0.2952996367620753 0.2952996367620753 0.2952996367620753 0.2803101512433042 
0.2803101512433042 0.2803101512433042 0.2803101512433042 0.2642144096191023 0.2642144096191023 0.2642144096191023 0.2642144096191023 0.2470759344282157 0.2470759344282157 
0.2470759344282157 0.2470759344282157 0.2289623634023983 0.2289623634023983 0.2289623634023983 0.2289623634023983 0.2099451825311853 0.2099451825311853 0.2099451825311853 
0.2099451825311853 0.1900994439393521 0.1900994439393521 0.1900994439393521 0.1900994439393521 0.1695034696904651 0.1695034696904651 0.1695034696904651 0.1695034696904651 
0.1482385426854791 0.1482385426854791 0.1482385426854791 0.1482385426854791 0.1263885858762617 0.1263885858762617 0.1263885858762617 0.1263885858762617 0.104039831060043 
0.104039831060043 0.104039831060043 0.104039831060043 0.08128047856190823 0.08128047856190823 0.08128047856190823 0.08128047856190823 0.05820034914840772 0.05820034914840772 
0.05820034914840772 0.05820034914840772 0.03489052954602902 0.03489052954602902 0.03489052954602902 0.03489052954602902 0.01144301296349836 0.01144301296349836 0.01144301296349836 
0.01144301296349836 -0.01204966396338355 -0.01204966396338355 -0.01204966396338355 -0.01204966396338355 -0.0354947863715698 -0.0354947863715698 -0.0354947863715698 -0.0354947863715698 
-0.05879982707397291 -0.05879982707397291 -0.05879982707397291 -0.05879982707397291 -0.0818728117220007 -0.0818728117220007 -0.0818728117220007 -0.0818728117220007 -0.1046226817862915 
-0.1046226817862915 -0.1046226817862915 -0.1046226817862915 -0.1269596539231288 -0.1269596539231288 -0.1269596539231288 -0.1269596539231288 -0.1487955743082797 -0.1487955743082797 
-0.1487955743082797 -0.1487955743082797 -0.1700442665398678 -0.1700442665398678 -0.1700442665398678 -0.1700442665398678 -0.1906218717372588 -0.1906218717372588 -0.1906218717372588 
-0.1906218717372588 -0.2104471794937517 -0.2104471794937517 -0.2104471794937517 -0.2104471794937517 -0.2294419483769543 -0.2294419483769543 -0.2294419483769543 -0.2294419483769543 
-0.2475312147119687 -0.2475312147119687 -0.2475312147119687 -0.2475312147119687 -0.2646435884287696 -0.2646435884287696 -0.2646435884287696 -0.2646435884287696 -0.2807115348061971 
-0.2807115348061971 -0.2807115348061971 -0.2807115348061971 -0.295671641000646 -0.295671641000646 -0.295671641000646 -0.295671641000646 -0.3094648663075892 -0.3094648663075892 
-0.3094648663075892 -0.3094648663075892 -0.3220367751682652 -0.3220367751682652 -0.3220367751682652 -0.3220367751682652 -0.3333377520019601 -0.3333377520019601 -0.3333377520019601 
-0.3333377520019601 -0.3433231970160366 -0.3433231970160366 -0.3433231970160366 -0.3433231970160366 -0.3519537022209392 -0.3519537022209392 -0.3519537022209392 -0.3519537022209392 
-0.3591952069555278 -0.3591952069555278 -0.3591952069555278 -0.3591952069555278 -0.3650191323089432 -0.3650191323089432 -0.3650191323089432 -0.3650191323089432 -0.3694024939085147 
-0.3694024939085147 -0.3694024939085147 -0.3694024939085147 -0.3723279926285755 -0.3723279926285755 -0.3723279926285755 -0.3723279926285755 -0.3737840828622106 -0.3737840828622106 
-0.3737840828622106 -0.3737840828622106 -0.373765018086493 -0.373765018086493 -0.373765018086493 -0.373765018086493 -0.3722708735413819 -0.3722708735413819 -0.3722708735413819 
-0.3722708735413819 -0.3693075459327871 -0.3693075459327871 -0.3693075459327871 -0.3693075459327871 -0.3648867301609647 -0.3648867301609647 -0.3648867301609647 -0.3648867301609647 
-0.3590258731660868 -0.3590258731660868 -0.3590258731660868 -0.3590258731660868 -0.3517481050731418 -0.3517481050731418 -0.3517481050731418 -0.3517481050731418 -0.3430821479078965 
-0.3430821479078965 -0.3430821479078965 -0.3430821479078965 -0.3330622022441827 -0.3330622022441827 -0.3330622022441827 -0.3330622022441827 -0.3217278122298576 -0.3217278122298576 
-0.3217278122298576 -0.3217278122298576 -0.3091237095241176 -0.3091237095241176 -0.3091237095241176 -0.3091237095241176 -0.295299636762075 -0.295299636762075 -0.295299636762075 
-0.295299636762075 -0.2803101512433041 -0.2803101512433041 -0.2803101512433041 -0.2803101512433041 -0.2642144096191019 -0.2642144096191019 -0.2642144096191019 -0.2642144096191019 
-0.2470759344282155 -0.2470759344282155 -0.2470759344282155 -0.2470759344282155 -0.2289623634023982 -0.2289623634023982 -0.2289623634023982 -0.2289623634023982 -0.2099451825311854 
-0.2099451825311854 -0.2099451825311854 -0.2099451825311854 -0.1900994439393523 -0.1900994439393523 -0.1900994439393523 -0.1900994439393523 -0.1695034696904657 -0.1695034696904657 
-0.1695034696904657 -0.1695034696904657 -0.148238542685479 -0.148238542685479 -0.148238542685479 -0.148238542685479 -0.1263885858762618 -0.1263885858762618 -0.1263885858762618 
-0.1263885858762618 -0.1040398310600434 -0.1040398310600434 -0.1040398310600434 -0.1040398310600434 -0.08128047856190843 -0.08128047856190843 -0.08128047856190843 -0.08128047856190843 
-0.05820034914840788 -0.05820034914840788 -0.05820034914840788 -0.05820034914840788 -0.03489052954602908 -0.03489052954602908 -0.03489052954602908 -0.03489052954602908 -0.01144301296349834 
-0.01144301296349834 -0.01144301296349834 -0.01144301296349834 0.01204966396338361 0.01204966396338361 0.01204966396338361 0.01204966396338361 0.03549478637157 0.03549478637157 
0.03549478637157 0.03549478637157 0.05879982707397283 0.05879982707397283 0.05879982707397283 0.05879982707397283 0.08187281172200067 0.08187281172200067 0.08187281172200067 
0.08187281172200067 0.1046226817862915 0.1046226817862915 0.1046226817862915 0.1046226817862915 0.1269596539231284 0.1269596539231284 0.1269596539231284 0.1269596539231284 