Title = Result/Linear_Advection_2D/FVM/MLP_u1_Least_Square/Sine_Wave_2D/Quad60/
FileType = Solution
Variables = q
Zone T = Result/Linear_Advection_2D/FVM/MLP_u1_Least_Square/Sine_Wave_2D/Quad60/
ZoneType = FETriangle
Nodes = 14400
Elements = 7200
DataPacking = Block
StrandID = 9
SolutionTime = 0.8
-0.639116536269688 -0.639116536269688 -0.639116536269688 -0.639116536269688 -0.6462665604956465 -0.6462665604956465 -0.6462665604956465 -0.6462665604956465 -0.65177996178002 -0.65177996178002 
-0.65177996178002 -0.65177996178002 -0.651637834658003 -0.651637834658003 -0.651637834658003 -0.651637834658003 -0.644742663104704 -0.644742663104704 -0.644742663104704 
-0.644742663104704 -0.6308579725964603 -0.6308579725964603 -0.6308579725964603 -0.6308579725964603 -0.6100619821888212 -0.6100619821888212 -0.6100619821888212 -0.6100619821888212 
-0.5825697993229166 -0.5825697993229166 -0.5825697993229166 -0.5825697993229166 -0.5486883246550947 -0.5486883246550947 -0.5486883246550947 -0.5486883246550947 -0.5087963633163183 
-0.5087963633163183 -0.5087963633163183 -0.5087963633163183 -0.4633349245307213 -0.4633349245307213 -0.4633349245307213 -0.4633349245307213 -0.4128019683824656 -0.4128019683824656 
-0.4128019683824656 -0.4128019683824656 -0.3577492998628315 -0.3577492998628315 -0.3577492998628315 -0.3577492998628315 -0.2987781593785009 -0.2987781593785009 -0.2987781593785009 
-0.2987781593785009 -0.2365331748075511 -0.2365331748075511 -0.2365331748075511 -0.2365331748075511 -0.1716951034962663 -0.1716951034962663 -0.1716951034962663 -0.1716951034962663 
-0.1049734872694305 -0.1049734872694305 -0.1049734872694305 -0.1049734872694305 -0.03709944308625058 -0.03709944308625058 -0.03709944308625058 -0.03709944308625058 0.03118199812394025 
0.03118199812394025 0.03118199812394025 0.03118199812394025 0.09912059246954598 0.09912059246954598 0.09912059246954598 0.09912059246954598 0.1659703510923899 0.1659703510923899 
0.1659703510923899 0.1659703510923899 0.2309987334366762 0.2309987334366762 0.2309987334366762 0.2309987334366762 0.2934946549994667 0.2934946549994667 0.2934946549994667 
0.2934946549994667 0.3527752851922344 0.3527752851922344 0.3527752851922344 0.3527752851922344 0.4081923830809431 0.4081923830809431 0.4081923830809431 0.4081923830809431 
0.4591389031238778 0.4591389031238778 0.4591389031238778 0.4591389031238778 0.5050559598410886 0.5050559598410886 0.5050559598410886 0.5050559598410886 0.5454396351798931 
0.5454396351798931 0.5454396351798931 0.5454396351798931 0.5798470360899086 0.5798470360899086 0.5798470360899086 0.5798470360899086 0.6079013929617207 0.6079013929617207 
0.6079013929617207 0.6079013929617207 0.6292959765908963 0.6292959765908963 0.6292959765908963 0.6292959765908963 0.6437961986538927 0.6437961986538927 0.6437961986538927 
0.6437961986538927 0.6512373806491867 0.6512373806491867 0.6512373806491867 0.6512373806491867 0.6515434779236188 0.6515434779236188 0.6515434779236188 0.6515434779236188 
0.644725696992692 0.644725696992692 0.644725696992692 0.644725696992692 0.6308364689376387 0.6308364689376387 0.6308364689376387 0.6308364689376387 0.6100268909472349 
0.6100268909472349 0.6100268909472349 0.6100268909472349 0.5825170463098802 0.5825170463098802 0.5825170463098802 0.5825170463098802 0.5486086410972362 0.5486086410972362 
0.5486086410972362 0.5486086410972362 0.5086983517154099 0.5086983517154099 0.5086983517154099 0.5086983517154099 0.4632971022371231 0.4632971022371231 0.4632971022371231 
0.4632971022371231 0.4130352875054767 0.4130352875054767 0.4130352875054767 0.4130352875054767 0.3586388296511948 0.3586388296511948 0.3586388296511948 0.3586388296511948 
0.3008638314978497 0.3008638314978497 0.3008638314978497 0.3008638314978497 0.2404005077421338 0.2404005077421338 0.2404005077421338 0.2404005077421338 0.1777809165360818 
0.1777809165360818 0.1777809165360818 0.1777809165360818 0.1133395988719712 0.1133395988719712 0.1133395988719712 0.1133395988719712 0.04726510553172944 0.04726510553172944 
0.04726510553172944 0.04726510553172944 -0.02025721212381311 -0.02025721212381311 -0.02025721212381311 -0.02025721212381311 -0.08885913784870976 -0.08885913784870976 -0.08885913784870976 
-0.08885913784870976 -0.1578407621000508 -0.1578407621000508 -0.1578407621000508 -0.1578407621000508 -0.2261330176446928 -0.2261330176446928 -0.2261330176446928 -0.2261330176446928 
-0.2924023868513386 -0.2924023868513386 -0.2924023868513386 -0.2924023868513386 -0.3552562509485176 -0.3552562509485176 -0.3552562509485176 -0.3552562509485176 -0.4134847586011068 
-0.4134847586011068 -0.4134847586011068 -0.4134847586011068 -0.4661956480910113 -0.4661956480910113 -0.4661956480910113 -0.4661956480910113 -0.5128718398400114 -0.5128718398400114 
-0.5128718398400114 -0.5128718398400114 -0.5535966309971732 -0.5535966309971732 -0.5535966309971732 -0.5535966309971732 -0.5858970786479543 -0.5858970786479543 -0.5858970786479543 
-0.5858970786479543 -0.6247981225082138 -0.6247981225082138 -0.6247981225082138 -0.6247981225082138 -0.683055832592821 -0.683055832592821 -0.683055832592821 -0.683055832592821 
-0.6904708698900401 -0.6904708698900401 -0.6904708698900401 -0.6904708698900401 -0.6964209180787693 -0.6964209180787693 -0.6964209180787693 -0.6964209180787693 -0.6963238695809004 
-0.6963238695809004 -0.6963238695809004 -0.6963238695809004 -0.6889866758171503 -0.6889866758171503 -0.6889866758171503 -0.6889866758171503 -0.6741663161923901 -0.6741663161923901 
-0.6741663161923901 -0.6741663161923901 -0.6519474892839067 -0.6519474892839067 -0.6519474892839067 -0.6519474892839067 -0.6225676268273492 -0.6225676268273492 -0.6225676268273492 
-0.6225676268273492 -0.586358900276216 -0.586358900276216 -0.586358900276216 -0.586358900276216 -0.5437282551563765 -0.5437282551563765 -0.5437282551563765 -0.5437282551563765 
-0.4951471717259864 -0.4951471717259864 -0.4951471717259864 -0.4951471717259864 -0.441147370006344 -0.441147370006344 -0.441147370006344 -0.441147370006344 -0.3823178532575056 
-0.3823178532575056 -0.3823178532575056 -0.3823178532575056 -0.3193006528342275 -0.3193006528342275 -0.3193006528342275 -0.3193006528342275 -0.2527844357434917 -0.2527844357434917 
-0.2527844357434917 -0.2527844357434917 -0.1834966972121481 -0.1834966972121481 -0.1834966972121481 -0.1834966972121481 -0.1121957815364179 -0.1121957815364179 -0.1121957815364179 
-0.1121957815364179 -0.03966307260714957 -0.03966307260714957 -0.03966307260714957 -0.03966307260714957 0.03330523499501013 0.03330523499501013 0.03330523499501013 0.03330523499501013 
0.1059074136392607 0.1059074136392607 0.1059074136392607 0.1059074136392607 0.1773462719305003 0.1773462719305003 0.1773462719305003 0.1773462719305003 0.2468389483980252 
0.2468389483980252 0.2468389483980252 0.2468389483980252 0.3136254800193692 0.3136254800193692 0.3136254800193692 0.3136254800193692 0.3769761054316564 0.3769761054316564 
0.3769761054316564 0.3769761054316564 0.4361980659771638 0.4361980659771638 0.4361980659771638 0.4361980659771638 0.490642662645207 0.490642662645207 0.490642662645207 
0.490642662645207 0.5397126759861506 0.5397126759861506 0.5397126759861506 0.5397126759861506 0.5828696338181797 0.5828696338181797 0.5828696338181797 0.5828696338181797 
0.6196403053195454 0.6196403053195454 0.6196403053195454 0.6196403053195454 0.6496220651381056 0.6496220651381056 0.6496220651381056 0.6496220651381056 0.6724867505051779 
0.6724867505051779 0.6724867505051779 0.6724867505051779 0.6879828139546695 0.6879828139546695 0.6879828139546695 0.6879828139546695 0.695938118177988 0.695938118177988 
0.695938118177988 0.695938118177988 0.6962704795002468 0.6962704795002468 0.6962704795002468 0.6962704795002468 0.6889800677937307 0.6889800677937307 0.6889800677937307 
0.6889800677937307 0.6741407354527539 0.6741407354527539 0.6741407354527539 0.6741407354527539 0.6519048830442938 0.6519048830442938 0.6519048830442938 0.6519048830442938 
0.6225090242672209 0.6225090242672209 0.6225090242672209 0.6225090242672209 0.5862747137271406 0.5862747137271406 0.5862747137271406 0.5862747137271406 0.5436258934858882 
0.5436258934858882 0.5436258934858882 0.5436258934858882 0.4951077594510569 0.4951077594510569 0.4951077594510569 0.4951077594510569 0.4413936431308866 0.4413936431308866 
0.4413936431308866 0.4413936431308866 0.3832596520255622 0.3832596520255622 0.3832596520255622 0.3832596520255622 0.3215153240870237 0.3215153240870237 0.3215153240870237 
0.3215153240870237 0.2569006772993078 0.2569006772993078 0.2569006772993078 0.2569006772993078 0.1899866402649194 0.1899866402649194 0.1899866402649194 0.1899866402649194 
0.1211316135279512 0.1211316135279512 0.1211316135279512 0.1211316135279512 0.05053548869985498 0.05053548869985498 0.05053548869985498 0.05053548869985498 -0.02160771282192745 
-0.02160771282192745 -0.02160771282192745 -0.02160771282192745 -0.09490960086267704 -0.09490960086267704 -0.09490960086267704 -0.09490960086267704 -0.1686261409751502 -0.1686261409751502 
-0.1686261409751502 -0.1686261409751502 -0.2416156322693619 -0.2416156322693619 -0.2416156322693619 -0.2416156322693619 -0.3124501123545951 -0.3124501123545951 -0.3124501123545951 
-0.3124501123545951 -0.3796357034072343 -0.3796357034072343 -0.3796357034072343 -0.3796357034072343 -0.4418743208350606 -0.4418743208350606 -0.4418743208350606 -0.4418743208350606 
-0.4982083994176806 -0.4982083994176806 -0.4982083994176806 -0.4982083994176806 -0.5480834630038556 -0.5480834630038556 -0.5480834630038556 -0.5480834630038556 -0.5916179544901735 
-0.5916179544901735 -0.5916179544901735 -0.5916179544901735 -0.6260097817280516 -0.6260097817280516 -0.6260097817280516 -0.6260097817280516 -0.66787553924022 -0.66787553924022 
-0.66787553924022 -0.66787553924022 -0.74287569030499 -0.74287569030499 -0.74287569030499 -0.74287569030499 -0.7508757170140427 -0.7508757170140427 -0.7508757170140427 
-0.7508757170140427 -0.7572855381929411 -0.7572855381929411 -0.7572855381929411 -0.7572855381929411 -0.757175252737643 -0.757175252737643 -0.757175252737643 -0.757175252737643 
-0.7492140332938042 -0.7492140332938042 -0.7492140332938042 -0.7492140332938042 -0.7331185197602849 -0.7331185197602849 -0.7331185197602849 -0.7331185197602849 -0.7089714157428382 
-0.7089714157428382 -0.7089714157428382 -0.7089714157428382 -0.6770282648861956 -0.6770282648861956 -0.6770282648861956 -0.6770282648861956 -0.6376533881378297 -0.6376533881378297 
-0.6376533881378297 -0.6376533881378297 -0.5912927797220895 -0.5912927797220895 -0.5912927797220895 -0.5912927797220895 -0.5384615948082754 -0.5384615948082754 -0.5384615948082754 
-0.5384615948082754 -0.479739104022824 -0.479739104022824 -0.479739104022824 -0.479739104022824 -0.4157657439418323 -0.4157657439418323 -0.4157657439418323 -0.4157657439418323 
-0.3472391510438418 -0.3472391510438418 -0.3472391510438418 -0.3472391510438418 -0.2749076557187419 -0.2749076557187419 -0.2749076557187419 -0.2749076557187419 -0.1995620203463546 
-0.1995620203463546 -0.1995620203463546 -0.1995620203463546 -0.1220267590497779 -0.1220267590497779 -0.1220267590497779 -0.1220267590497779 -0.0431515530835182 -0.0431515530835182 
-0.0431515530835182 -0.0431515530835182 0.03619777826800239 0.03619777826800239 0.03619777826800239 0.03619777826800239 0.1151493879189756 0.1151493879189756 0.1151493879189756 
0.1151493879189756 0.1928363296438649 0.1928363296438649 0.1928363296438649 0.1928363296438649 0.2684071925339995 0.2684071925339995 0.2684071925339995 0.2684071925339995 
0.3410354397946911 0.3410354397946911 0.3410354397946911 0.3410354397946911 0.409927397766674 0.409927397766674 0.409927397766674 0.409927397766674 0.4743296879877599 
0.4743296879877599 0.4743296879877599 0.4743296879877599 0.5335369028671808 0.5335369028671808 0.5335369028671808 0.5335369028671808 0.5868996516004068 0.5868996516004068 
0.5868996516004068 0.5868996516004068 0.633832438890387 0.633832438890387 0.633832438890387 0.633832438890387 0.6738206738581108 0.6738206738581108 0.6738206738581108 
0.6738206738581108 0.70642633070459 0.70642633070459 0.70642633070459 0.70642633070459 0.7312921153424253 0.7312921153424253 0.7312921153424253 0.7312921153424253 
0.748144699788245 0.748144699788245 0.748144699788245 0.748144699788245 0.7567988243371709 0.7567988243371709 0.7567988243371709 0.7567988243371709 0.757162958321116 
0.757162958321116 0.757162958321116 0.757162958321116 0.7492360630149411 0.7492360630149411 0.7492360630149411 0.7492360630149411 0.733099799276325 0.733099799276325 
0.733099799276325 0.733099799276325 0.7089221183932153 0.7089221183932153 0.7089221183932153 0.7089221183932153 0.6769581542660196 0.6769581542660196 0.6769581542660196 
0.6769581542660196 0.6375574391042551 0.6375574391042551 0.6375574391042551 0.6375574391042551 0.5911807827351472 0.5911807827351472 0.5911807827351472 0.5911807827351472 
0.5384205184261313 0.5384205184261313 0.5384205184261313 0.5384205184261313 0.4800083399889153 0.4800083399889153 0.4800083399889153 0.4800083399889153 0.4167880245869378 
0.4167880245869378 0.4167880245869378 0.4167880245869378 0.3496406338028007 0.3496406338028007 0.3496406338028007 0.3496406338028007 0.2793726262703718 0.2793726262703718 
0.2793726262703718 0.2793726262703718 0.2066070624765169 0.2066070624765169 0.2066070624765169 0.2066070624765169 0.1317352731436356 0.1317352731436356 0.1317352731436356 
0.1317352731436356 0.05497447562048864 0.05497447562048864 0.05497447562048864 0.05497447562048864 -0.02346669970561016 -0.02346669970561016 -0.02346669970561016 -0.02346669970561016 
-0.1031697926695609 -0.1031697926695609 -0.1031697926695609 -0.1031697926695609 -0.1833294968925125 -0.1833294968925125 -0.1833294968925125 -0.1833294968925125 -0.262706136397087 
-0.262706136397087 -0.262706136397087 -0.262706136397087 -0.3397458021731399 -0.3397458021731399 -0.3397458021731399 -0.3397458021731399 -0.4128203467687345 -0.4128203467687345 
-0.4128203467687345 -0.4128203467687345 -0.4805136876359585 -0.4805136876359585 -0.4805136876359585 -0.4805136876359585 -0.5417809464662381 -0.5417809464662381 -0.5417809464662381 
-0.5417809464662381 -0.5960190092556347 -0.5960190092556347 -0.5960190092556347 -0.5960190092556347 -0.6433532431567724 -0.6433532431567724 -0.6433532431567724 -0.6433532431567724 
-0.6807717756122043 -0.6807717756122043 -0.6807717756122043 -0.6807717756122043 -0.7262177043406105 -0.7262177043406105 -0.7262177043406105 -0.7262177043406105 -0.8000853774280282 
-0.8000853774280282 -0.8000853774280282 -0.8000853774280282 -0.8087217891507474 -0.8087217891507474 -0.8087217891507474 -0.8087217891507474 -0.8156053329348163 -0.8156053329348163 
-0.8156053329348163 -0.8156053329348163 -0.8154608533266084 -0.8154608533266084 -0.8154608533266084 -0.8154608533266084 -0.8068769606811715 -0.8068769606811715 -0.8068769606811715 
-0.8068769606811715 -0.7895476474641592 -0.7895476474641592 -0.7895476474641592 -0.7895476474641592 -0.7635532950560242 -0.7635532950560242 -0.7635532950560242 -0.7635532950560242 
-0.7291618545543367 -0.7291618545543367 -0.7291618545543367 -0.7291618545543367 -0.6867623096905958 -0.6867623096905958 -0.6867623096905958 -0.6867623096905958 -0.6368347891350993 
-0.6368347891350993 -0.6368347891350993 -0.6368347891350993 -0.5799357737258427 -0.5799357737258427 -0.5799357737258427 -0.5799357737258427 -0.5166909199446794 -0.5166909199446794 
-0.5166909199446794 -0.5166909199446794 -0.4477911785570494 -0.4477911785570494 -0.4477911785570494 -0.4477911785570494 -0.3739883517254243 -0.3739883517254243 -0.3739883517254243 
-0.3739883517254243 -0.2960883205105883 -0.2960883205105883 -0.2960883205105883 -0.2960883205105883 -0.2149424498602647 -0.2149424498602647 -0.2149424498602647 -0.2149424498602647 
-0.1314384385570322 -0.1314384385570322 -0.1314384385570322 -0.1314384385570322 -0.04649115701957149 -0.04649115701957149 -0.04649115701957149 -0.04649115701957149 0.03896706184820209 
0.03896706184820209 0.03896706184820209 0.03896706184820209 0.1239973115652165 0.1239973115652165 0.1239973115652165 0.1239973115652165 0.2076658840725966 0.2076658840725966 
0.2076658840725966 0.2076658840725966 0.2890557385488324 0.2890557385488324 0.2890557385488324 0.2890557385488324 0.3672765976256953 0.3672765976256953 0.3672765976256953 
0.3672765976256953 0.4414736002507207 0.4414736002507207 0.4414736002507207 0.4414736002507207 0.5108353390288791 0.5108353390288791 0.5108353390288791 0.5108353390288791 
0.5746021284922361 0.5746021284922361 0.5746021284922361 0.5746021284922361 0.6320746435516037 0.6320746435516037 0.6320746435516037 0.6320746435516037 0.6826223599624315 
0.6826223599624315 0.6826223599624315 0.6826223599624315 0.7256910317823064 0.7256910317823064 0.7256910317823064 0.7256910317823064 0.7608087066568765 0.7608087066568765 
0.7608087066568765 0.7608087066568765 0.7875903596087817 0.7875903596087817 0.7875903596087817 0.7875903596087817 0.8057418787112668 0.8057418787112668 0.8057418787112668 
0.8057418787112668 0.8150645884386047 0.8150645884386047 0.8150645884386047 0.8150645884386047 0.8154591923323047 0.8154591923323047 0.8154591923323047 0.8154591923323047 
0.8069229315256319 0.8069229315256319 0.8069229315256319 0.8069229315256319 0.7895457752254313 0.7895457752254313 0.7895457752254313 0.7895457752254313 0.7635088920682531 
0.7635088920682531 0.7635088920682531 0.7635088920682531 0.7290865112947605 0.7290865112947605 0.7290865112947605 0.7290865112947605 0.6866548507547976 0.6866548507547976 
0.6866548507547976 0.6866548507547976 0.6367098202278889 0.6367098202278889 0.6367098202278889 0.6367098202278889 0.5798890719053543 0.5798890719053543 0.5798890719053543 
0.5798890719053543 0.5169800355499966 0.5169800355499966 0.5169800355499966 0.5169800355499966 0.4488909860120257 0.4488909860120257 0.4488909860120257 0.4488909860120257 
0.3765709769127708 0.3765709769127708 0.3765709769127708 0.3765709769127708 0.300889647350815 0.300889647350815 0.300889647350815 0.300889647350815 0.2225198568273018 
0.2225198568273018 0.2225198568273018 0.2225198568273018 0.1418848490497687 0.1418848490497687 0.1418848490497687 0.1418848490497687 0.05921927583665758 0.05921927583665758 
0.05921927583665758 0.05921927583665758 -0.02525322681296657 -0.02525322681296657 -0.02525322681296657 -0.02525322681296657 -0.1110846473244529 -0.1110846473244529 -0.1110846473244529 
-0.1110846473244529 -0.1974108767765526 -0.1974108767765526 -0.1974108767765526 -0.1974108767765526 -0.2828990268082416 -0.2828990268082416 -0.2828990268082416 -0.2828990268082416 
-0.3658756948647264 -0.3658756948647264 -0.3658756948647264 -0.3658756948647264 -0.4445853537283851 -0.4445853537283851 -0.4445853537283851 -0.4445853537283851 -0.5174996354508842 
-0.5174996354508842 -0.5174996354508842 -0.5174996354508842 -0.5834903878046331 -0.5834903878046331 -0.5834903878046331 -0.5834903878046331 -0.641906888081608 -0.641906888081608 
-0.641906888081608 -0.641906888081608 -0.6928815279399886 -0.6928815279399886 -0.6928815279399886 -0.6928815279399886 -0.733201547040892 -0.733201547040892 -0.733201547040892 
-0.733201547040892 -0.7820651875905964 -0.7820651875905964 -0.7820651875905964 -0.7820651875905964 -0.8498469839901147 -0.8498469839901147 -0.8498469839901147 -0.8498469839901147 
-0.8590388380503566 -0.8590388380503566 -0.8590388380503566 -0.8590388380503566 -0.866360185393988 -0.866360185393988 -0.866360185393988 -0.866360185393988 -0.8661971470294523 
-0.8661971470294523 -0.8661971470294523 -0.8661971470294523 -0.8570642067431116 -0.8570642067431116 -0.8570642067431116 -0.8570642067431116 -0.8386478226692708 -0.8386478226692708 
-0.8386478226692708 -0.8386478226692708 -0.8110366529618324 -0.8110366529618324 -0.8110366529618324 -0.8110366529618324 -0.7745128344964251 -0.7745128344964251 -0.7745128344964251 
-0.7745128344964251 -0.7294849367813743 -0.7294849367813743 -0.7294849367813743 -0.7294849367813743 -0.6764594577988949 -0.6764594577988949 -0.6764594577988949 -0.6764594577988949 
-0.6160259574162518 -0.6160259574162518 -0.6160259574162518 -0.6160259574162518 -0.5488491461156708 -0.5488491461156708 -0.5488491461156708 -0.5488491461156708 -0.4756639101422101 
-0.4756639101422101 -0.4756639101422101 -0.4756639101422101 -0.3972698099735055 -0.3972698099735055 -0.3972698099735055 -0.3972698099735055 -0.3145235276016675 -0.3145235276016675 
-0.3145235276016675 -0.3145235276016675 -0.2283296771599709 -0.2283296771599709 -0.2283296771599709 -0.2283296771599709 -0.1396311913489889 -0.1396311913489889 -0.1396311913489889 
-0.1396311913489889 -0.04939972898508511 -0.04939972898508511 -0.04939972898508511 -0.04939972898508511 0.04137452577291743 0.04137452577291743 0.04137452577291743 0.04137452577291743 
0.1316943589815103 0.1316943589815103 0.1316943589815103 0.1316943589815103 0.2205680047638857 0.2205680047638857 0.2205680047638857 0.2205680047638857 0.307021339363409 
0.307021339363409 0.307021339363409 0.307021339363409 0.3901086429400581 0.3901086429400581 0.3901086429400581 0.3901086429400581 0.4689218334255663 0.4689218334255663 
0.4689218334255663 0.4689218334255663 0.5425990306899566 0.5425990306899566 0.5425990306899566 0.5425990306899566 0.6103333369693498 0.6103333369693498 0.6103333369693498 
0.6103333369693498 0.6713819838944612 0.6713819838944612 0.6713819838944612 0.6713819838944612 0.725075250632883 0.725075250632883 0.725075250632883 0.725075250632883 
0.7708243604630778 0.7708243604630778 0.7708243604630778 0.7708243604630778 0.8081278589054334 0.8081278589054334 0.8081278589054334 0.8081278589054334 0.8365766342092771 
0.8365766342092771 0.8365766342092771 0.8365766342092771 0.8558584977085046 0.8558584977085046 0.8558584977085046 0.8558584977085046 0.8657628459205747 0.8657628459205747 
0.8657628459205747 0.8657628459205747 0.86618359033796 0.86618359033796 0.86618359033796 0.86618359033796 0.8571177419972029 0.8571177419972029 0.8571177419972029 
0.8571177419972029 0.8386613866335968 0.8386613866335968 0.8386613866335968 0.8386613866335968 0.8110071292509806 0.8110071292509806 0.8110071292509806 0.8110071292509806 
0.7744461637289108 0.7744461637289108 0.7744461637289108 0.7744461637289108 0.7293776445678396 0.7293776445678396 0.7293776445678396 0.7293776445678396 0.676328141037344 
0.676328141037344 0.676328141037344 0.676328141037344 0.6159746635219026 0.6159746635219026 0.6159746635219026 0.6159746635219026 0.5491530726164519 0.5491530726164519 
0.5491530726164519 0.5491530726164519 0.4768276479234241 0.4768276479234241 0.4768276479234241 0.4768276479234241 0.4000064537591349 0.4000064537591349 0.4000064537591349 
0.4000064537591349 0.3196140600743038 0.3196140600743038 0.3196140600743038 0.3196140600743038 0.2363667963880813 0.2363667963880813 0.2363667963880813 0.2363667963880813 
0.1507159984877097 0.1507159984877097 0.1507159984877097 0.1507159984877097 0.06291188078104039 0.06291188078104039 0.06291188078104039 0.06291188078104039 -0.02680858155606228 
-0.02680858155606228 -0.02680858155606228 -0.02680858155606228 -0.1179716381012433 -0.1179716381012433 -0.1179716381012433 -0.1179716381012433 -0.2096622766953451 -0.2096622766953451 
-0.2096622766953451 -0.2096622766953451 -0.3004669451174454 -0.3004669451174454 -0.3004669451174454 -0.3004669451174454 -0.3886086916857822 -0.3886086916857822 -0.3886086916857822 
-0.3886086916857822 -0.4722214019038036 -0.4722214019038036 -0.4722214019038036 -0.4722214019038036 -0.5496789577427152 -0.5496789577427152 -0.5496789577427152 -0.5496789577427152 
-0.6197805715108251 -0.6197805715108251 -0.6197805715108251 -0.6197805715108251 -0.6818338196184218 -0.6818338196184218 -0.6818338196184218 -0.6818338196184218 -0.7359765257763128 
-0.7359765257763128 -0.7359765257763128 -0.7359765257763128 -0.778817133172741 -0.778817133172741 -0.778817133172741 -0.778817133172741 -0.8306797721566381 -0.8306797721566381 
-0.8306797721566381 -0.8306797721566381 -0.8906158442550858 -0.8906158442550858 -0.8906158442550858 -0.8906158442550858 -0.9002560226723333 -0.9002560226723333 -0.9002560226723333 
-0.9002560226723333 -0.9079411265741766 -0.9079411265741766 -0.9079411265741766 -0.9079411265741766 -0.9077747518094649 -0.9077747518094649 -0.9077747518094649 -0.9077747518094649 
-0.8981977560571637 -0.8981977560571637 -0.8981977560571637 -0.8981977560571637 -0.8788875127346882 -0.8788875127346882 -0.8788875127346882 -0.8788875127346882 -0.8499436665209936 
-0.8499436665209936 -0.8499436665209936 -0.8499436665209936 -0.8116652748985822 -0.8116652748985822 -0.8116652748985822 -0.8116652748985822 -0.7644802155629865 -0.7644802155629865 
-0.7644802155629865 -0.7644802155629865 -0.7089169054818798 -0.7089169054818798 -0.7089169054818798 -0.7089169054818798 -0.645590606290648 -0.645590606290648 -0.645590606290648 
-0.645590606290648 -0.5751962185494726 -0.5751962185494726 -0.5751962185494726 -0.5751962185494726 -0.4985032711351313 -0.4985032711351313 -0.4985032711351313 -0.4985032711351313 
-0.416349832723047 -0.416349832723047 -0.416349832723047 -0.416349832723047 -0.3296341675132175 -0.3296341675132175 -0.3296341675132175 -0.3296341675132175 -0.2393047746495576 
-0.2393047746495576 -0.2393047746495576 -0.2393047746495576 -0.1463501581948228 -0.1463501581948228 -0.1463501581948228 -0.1463501581948228 -0.05178876107729228 -0.05178876107729228 
-0.05178876107729228 -0.05178876107729228 0.0433416666471432 0.0433416666471432 0.0433416666471432 0.0433416666471432 0.1379960431715639 0.1379960431715639 0.1379960431715639 
0.1379960431715639 0.2311349869344337 0.2311349869344337 0.2311349869344337 0.2311349869344337 0.321737586018793 0.321737586018793 0.321737586018793 0.321737586018793 
0.408812690954769 0.408812690954769 0.408812690954769 0.408812690954769 0.4914086128140497 0.4914086128140497 0.4914086128140497 0.4914086128140497 0.5686221113617095 
0.5686221113617095 0.5686221113617095 0.5686221113617095 0.6396075906573389 0.6396075906573389 0.6396075906573389 0.6396075906573389 0.7035866653388436 0.7035866653388436 
0.7035866653388436 0.7035866653388436 0.7598574706433779 0.7598574706433779 0.7598574706433779 0.7598574706433779 0.8078029516100713 0.8078029516100713 0.8078029516100713 
0.8078029516100713 0.8468975051734026 0.8468975051734026 0.8468975051734026 0.8468975051734026 0.8767123055316521 0.8767123055316521 0.8767123055316521 0.8767123055316521 
0.8969201963742963 0.8969201963742963 0.8969201963742963 0.8969201963742963 0.9073006561384496 0.9073006561384496 0.9073006561384496 0.9073006561384496 0.9077426169569406 
0.9077426169569406 0.9077426169569406 0.9077426169569406 0.8982432640272338 0.8982432640272338 0.8982432640272338 0.8982432640272338 0.8789035015274387 0.8789035015274387 
0.8789035015274387 0.8789035015274387 0.8499249357456113 0.8499249357456113 0.8499249357456113 0.8499249357456113 0.8116124078902376 0.8116124078902376 0.8116124078902376 
0.8116124078902376 0.7643840133443962 0.7643840133443962 0.7643840133443962 0.7643840133443962 0.7087913930767479 0.7087913930767479 0.7087913930767479 0.7087913930767479 
0.6455437510376194 0.6455437510376194 0.6455437510376194 0.6455437510376194 0.5755165690341012 0.5755165690341012 0.5755165690341012 0.5755165690341012 0.4997199333154055 
0.4997199333154055 0.4997199333154055 0.4997199333154055 0.4192102370740931 0.4192102370740931 0.4192102370740931 0.4192102370740931 0.3349571543836573 0.3349571543836573 
0.3349571543836573 0.3349571543836573 0.2477128817454349 0.2477128817454349 0.2477128817454349 0.2477128817454349 0.1579520984340792 0.1579520984340792 0.1579520984340792 
0.1579520984340792 0.06593802156660375 0.06593802156660375 0.06593802156660375 0.06593802156660375 -0.02808142111461352 -0.02808142111461352 -0.02808142111461352 -0.02808142111461352 
-0.1236116493741939 -0.1236116493741939 -0.1236116493741939 -0.1236116493741939 -0.2196963925110276 -0.2196963925110276 -0.2196963925110276 -0.2196963925110276 -0.314856444041231 
-0.314856444041231 -0.314856444041231 -0.314856444041231 -0.4072302304334647 -0.4072302304334647 -0.4072302304334647 -0.4072302304334647 -0.4948609486677286 -0.4948609486677286 
-0.4948609486677286 -0.4948609486677286 -0.5760420487190197 -0.5760420487190197 -0.5760420487190197 -0.5760420487190197 -0.6495128709146812 -0.6495128709146812 -0.6495128709146812 
-0.6495128709146812 -0.7145464872196052 -0.7145464872196052 -0.7145464872196052 -0.7145464872196052 -0.7712853124661533 -0.7712853124661533 -0.7712853124661533 -0.7712853124661533 
-0.8161874829550234 -0.8161874829550234 -0.8161874829550234 -0.8161874829550234 -0.8705225080684947 -0.8705225080684947 -0.8705225080684947 -0.8705225080684947 -0.921704733744901 
-0.921704733744901 -0.921704733744901 -0.921704733744901 -0.931682616787716 -0.931682616787716 -0.931682616787716 -0.931682616787716 -0.9396421684223952 -0.9396421684223952 
-0.9396421684223952 -0.9396421684223952 -0.939477742858142 -0.939477742858142 -0.939477742858142 -0.939477742858142 -0.9295705949191518 -0.9295705949191518 -0.9295705949191518 
-0.9295705949191518 -0.9095847777028939 -0.9095847777028939 -0.9095847777028939 -0.9095847777028939 -0.8796250146104279 -0.8796250146104279 -0.8796250146104279 -0.8796250146104279 
-0.840004158468078 -0.840004158468078 -0.840004158468078 -0.840004158468078 -0.7911679529610068 -0.7911679529610068 -0.7911679529610068 -0.7911679529610068 -0.7336643119641414 
-0.7336643119641414 -0.7336643119641414 -0.7336643119641414 -0.6681296698470703 -0.6681296698470703 -0.6681296698470703 -0.6681296698470703 -0.5952819353631799 -0.5952819353631799 
-0.5952819353631799 -0.5952819353631799 -0.5159161757540578 -0.5159161757540578 -0.5159161757540578 -0.5159161757540578 -0.4308987557606055 -0.4308987557606055 -0.4308987557606055 
-0.4308987557606055 -0.3411588415346386 -0.3411588415346386 -0.3411588415346386 -0.3411588415346386 -0.2476779764187721 -0.2476779764187721 -0.2476779764187721 -0.2476779764187721 
-0.1514793018379762 -0.1514793018379762 -0.1514793018379762 -0.1514793018379762 -0.05361699371043596 -0.05361699371043596 -0.05361699371043596 -0.05361699371043596 0.04483481078475899 