Title = Result/Linear_Advection_2D/FVM/MLP_u1_Least_Square/Sine_Wave_2D/Quad60/
FileType = Solution
Variables = q
Zone T = Result/Linear_Advection_2D/FVM/MLP_u1_Least_Square/Sine_Wave_2D/Quad60/
ZoneType = FETriangle
Nodes = 14400
Elements = 7200
DataPacking = Block
StrandID = 14
SolutionTime = 1.3
-0.7044097646584051 -0.7044097646584051 -0.7044097646584051 -0.7044097646584051 -0.7120230465231083 -0.7120230465231083 -0.7120230465231083 -0.7120230465231083 -0.7183324917110987 -0.7183324917110987 
-0.7183324917110987 -0.7183324917110987 -0.7184089312094627 -0.7184089312094627 -0.7184089312094627 -0.7184089312094627 -0.7110306897016951 -0.7110306897016951 -0.7110306897016951 
-0.7110306897016951 -0.6959473680640791 -0.6959473680640791 -0.6959473680640791 -0.6959473680640791 -0.6732562154077982 -0.6732562154077982 -0.6732562154077982 -0.6732562154077982 
-0.6432021437015889 -0.6432021437015889 -0.6432021437015889 -0.6432021437015889 -0.6061408178008091 -0.6061408178008091 -0.6061408178008091 -0.6061408178008091 -0.56252778719614 
-0.56252778719614 -0.56252778719614 -0.56252778719614 -0.5129116241292986 -0.5129116241292986 -0.5129116241292986 -0.5129116241292986 -0.4579185163920019 -0.4579185163920019 
-0.4579185163920019 -0.4579185163920019 -0.3982269706629491 -0.3982269706629491 -0.3982269706629491 -0.3982269706629491 -0.3345324903687062 -0.3345324903687062 -0.3345324903687062 
-0.3345324903687062 -0.2675081813478065 -0.2675081813478065 -0.2675081813478065 -0.2675081813478065 -0.1977716275052552 -0.1977716275052552 -0.1977716275052552 -0.1977716275052552 
-0.1258725957427377 -0.1258725957427377 -0.1258725957427377 -0.1258725957427377 -0.05231379986345264 -0.05231379986345264 -0.05231379986345264 -0.05231379986345264 0.02239455619786428 
0.02239455619786428 0.02239455619786428 0.02239455619786428 0.0976624690812358 0.0976624690812358 0.0976624690812358 0.0976624690812358 0.1727574974445662 0.1727574974445662 
0.1727574974445662 0.1727574974445662 0.2467774579896665 0.2467774579896665 0.2467774579896665 0.2467774579896665 0.3186708784337125 0.3186708784337125 0.3186708784337125 
0.3186708784337125 0.3873015547361605 0.3873015547361605 0.3873015547361605 0.3873015547361605 0.4515416033244888 0.4515416033244888 0.4515416033244888 0.4515416033244888 
0.5103707594878574 0.5103707594878574 0.5103707594878574 0.5103707594878574 0.5629573234895087 0.5629573234895087 0.5629573234895087 0.5629573234895087 0.6086995388143496 
0.6086995388143496 0.6086995388143496 0.6086995388143496 0.6472173344779235 0.6472173344779235 0.6472173344779235 0.6472173344779235 0.6783014670666354 0.6783014670666354 
0.6783014670666354 0.6783014670666354 0.7018423214301968 0.7018423214301968 0.7018423214301968 0.7018423214301968 0.7177643195057997 0.7177643195057997 0.7177643195057997 
0.7177643195057997 0.725986602541838 0.725986602541838 0.725986602541838 0.725986602541838 0.7264383024567427 0.7264383024567427 0.7264383024567427 0.7264383024567427 
0.7190875491189923 0.7190875491189923 0.7190875491189923 0.7190875491189923 0.7039268648259651 0.7039268648259651 0.7039268648259651 0.7039268648259651 0.6810644245473085 
0.6810644245473085 0.6810644245473085 0.6810644245473085 0.6507113858310618 0.6507113858310618 0.6507113858310618 0.6507113858310618 0.6131880305231393 0.6131880305231393 
0.6131880305231393 0.6131880305231393 0.5689116927881765 0.5689116927881765 0.5689116927881765 0.5689116927881765 0.5183835777856052 0.5183835777856052 0.5183835777856052 
0.5183835777856052 0.4621729094444532 0.4621729094444532 0.4621729094444532 0.4621729094444532 0.4009049774173117 0.4009049774173117 0.4009049774173117 0.4009049774173117 
0.3352526880004676 0.3352526880004676 0.3352526880004676 0.3352526880004676 0.2659318606419835 0.2659318606419835 0.2659318606419835 0.2659318606419835 0.1936976121907951 
0.1936976121907951 0.1936976121907951 0.1936976121907951 0.1193391327990752 0.1193391327990752 0.1193391327990752 0.1193391327990752 0.04367141993316512 0.04367141993316512 
0.04367141993316512 0.04367141993316512 -0.03247516783842638 -0.03247516783842638 -0.03247516783842638 -0.03247516783842638 -0.1082654200882001 -0.1082654200882001 -0.1082654200882001 
-0.1082654200882001 -0.1828687195581217 -0.1828687195581217 -0.1828687195581217 -0.1828687195581217 -0.2554670963945296 -0.2554670963945296 -0.2554670963945296 -0.2554670963945296 
-0.3252652943883204 -0.3252652943883204 -0.3252652943883204 -0.3252652943883204 -0.3914954397150524 -0.3914954397150524 -0.3914954397150524 -0.3914954397150524 -0.4534396795909661 
-0.4534396795909661 -0.4534396795909661 -0.4534396795909661 -0.5104069350046369 -0.5104069350046369 -0.5104069350046369 -0.5104069350046369 -0.5617600276146046 -0.5617600276146046 
-0.5617600276146046 -0.5617600276146046 -0.6073156593176883 -0.6073156593176883 -0.6073156593176883 -0.6073156593176883 -0.6436373318298299 -0.6436373318298299 -0.6436373318298299 
-0.6436373318298299 -0.688189794786189 -0.688189794786189 -0.688189794786189 -0.688189794786189 -0.6618404225155547 -0.6618404225155547 -0.6618404225155547 -0.6618404225155547 
-0.6691703074863568 -0.6691703074863568 -0.6691703074863568 -0.6691703074863568 -0.675021745151134 -0.675021745151134 -0.675021745151134 -0.675021745151134 -0.6750354589682723 
-0.6750354589682723 -0.6750354589682723 -0.6750354589682723 -0.6680709215801017 -0.6680709215801017 -0.6680709215801017 -0.6680709215801017 -0.6538961218774049 -0.6538961218774049 
-0.6538961218774049 -0.6538961218774049 -0.6325831461192323 -0.6325831461192323 -0.6325831461192323 -0.6325831461192323 -0.6043539710656392 -0.6043539710656392 -0.6043539710656392 
-0.6043539710656392 -0.5695381021791024 -0.5695381021791024 -0.5695381021791024 -0.5695381021791024 -0.5285629848491428 -0.5285629848491428 -0.5285629848491428 -0.5285629848491428 
-0.4819445930881646 -0.4819445930881646 -0.4819445930881646 -0.4819445930881646 -0.4302720051996812 -0.4302720051996812 -0.4302720051996812 -0.4302720051996812 -0.3741832548170337 
-0.3741832548170337 -0.3741832548170337 -0.3741832548170337 -0.3143329573278764 -0.3143329573278764 -0.3143329573278764 -0.3143329573278764 -0.2513553478696389 -0.2513553478696389 
-0.2513553478696389 -0.2513553478696389 -0.1858316767255172 -0.1858316767255172 -0.1858316767255172 -0.1858316767255172 -0.118276997897785 -0.118276997897785 -0.118276997897785 
-0.118276997897785 -0.04916041519431939 -0.04916041519431939 -0.04916041519431939 -0.04916041519431939 0.02104021415594514 0.02104021415594514 0.02104021415594514 0.02104021415594514 
0.09176745242646381 0.09176745242646381 0.09176745242646381 0.09176745242646381 0.1623268277981195 0.1623268277981195 0.1623268277981195 0.1623268277981195 0.2318664950215324 
0.2318664950215324 0.2318664950215324 0.2318664950215324 0.2994008885800432 0.2994008885800432 0.2994008885800432 0.2994008885800432 0.3638704653924953 0.3638704653924953 
0.3638704653924953 0.3638704653924953 0.4242233974541424 0.4242233974541424 0.4242233974541424 0.4242233974541424 0.479503316982739 0.479503316982739 0.479503316982739 
0.479503316982739 0.5289245317115745 0.5289245317115745 0.5289245317115745 0.5289245317115745 0.57191482309613 0.57191482309613 0.57191482309613 0.57191482309613 
0.6081125435700505 0.6081125435700505 0.6081125435700505 0.6081125435700505 0.637320768142964 0.637320768142964 0.637320768142964 0.637320768142964 0.659438463665473 
0.659438463665473 0.659438463665473 0.659438463665473 0.674395957302333 0.674395957302333 0.674395957302333 0.674395957302333 0.6821210868454219 0.6821210868454219 
0.6821210868454219 0.6821210868454219 0.6825502224320453 0.6825502224320453 0.6825502224320453 0.6825502224320453 0.6756416073168467 0.6756416073168467 0.6756416073168467 
0.6756416073168467 0.66140088490255 0.66140088490255 0.66140088490255 0.66140088490255 0.6399217715310102 0.6399217715310102 0.6399217715310102 0.6399217715310102 
0.6114043015167522 0.6114043015167522 0.6114043015167522 0.6114043015167522 0.5761489874620678 0.5761489874620678 0.5761489874620678 0.5761489874620678 0.5345486791955848 
0.5345486791955848 0.5345486791955848 0.5345486791955848 0.4870745889413604 0.4870745889413604 0.4870745889413604 0.4870745889413604 0.4342619410547566 0.4342619410547566 
0.4342619410547566 0.4342619410547566 0.3766979445290188 0.3766979445290188 0.3766979445290188 0.3766979445290188 0.3150138770553992 0.3150138770553992 0.3150138770553992 
0.3150138770553992 0.2498813750191261 0.2498813750191261 0.2498813750191261 0.2498813750191261 0.1820100047799713 0.1820100047799713 0.1820100047799713 0.1820100047799713 
0.1121425084841694 0.1121425084841694 0.1121425084841694 0.1121425084841694 0.04104605608607212 0.04104605608607212 0.04104605608607212 0.04104605608607212 -0.03049881328412357 
-0.03049881328412357 -0.03049881328412357 -0.03049881328412357 -0.1017083828096366 -0.1017083828096366 -0.1017083828096366 -0.1017083828096366 -0.1718037179099299 -0.1718037179099299 
-0.1718037179099299 -0.1718037179099299 -0.2400170123935689 -0.2400170123935689 -0.2400170123935689 -0.2400170123935689 -0.3056004666698106 -0.3056004666698106 -0.3056004666698106 
-0.3056004666698106 -0.3678315681623573 -0.3678315681623573 -0.3678315681623573 -0.3678315681623573 -0.4260344530322893 -0.4260344530322893 -0.4260344530322893 -0.4260344530322893 
-0.4795604468966533 -0.4795604468966533 -0.4795604468966533 -0.4795604468966533 -0.5278137242561927 -0.5278137242561927 -0.5278137242561927 -0.5278137242561927 -0.5705916314875493 
-0.5705916314875493 -0.5705916314875493 -0.5705916314875493 -0.604871939066304 -0.604871939066304 -0.604871939066304 -0.604871939066304 -0.6462741784037849 -0.6462741784037849 
-0.6462741784037849 -0.6462741784037849 -0.5939619937664814 -0.5939619937664814 -0.5939619937664814 -0.5939619937664814 -0.6006117216137078 -0.6006117216137078 -0.6006117216137078 
-0.6006117216137078 -0.6059184554560656 -0.6059184554560656 -0.6059184554560656 -0.6059184554560656 -0.6059275537869577 -0.6059275537869577 -0.6059275537869577 -0.6059275537869577 
-0.5996560153210408 -0.5996560153210408 -0.5996560153210408 -0.5996560153210408 -0.5869190377597923 -0.5869190377597923 -0.5869190377597923 -0.5869190377597923 -0.5677882786262474 
-0.5677882786262474 -0.5677882786262474 -0.5677882786262474 -0.5424586989001348 -0.5424586989001348 -0.5424586989001348 -0.5424586989001348 -0.5112203958025633 -0.5112203958025633 
-0.5112203958025633 -0.5112203958025633 -0.4744523191414846 -0.4744523191414846 -0.4744523191414846 -0.4744523191414846 -0.4326147667455886 -0.4326147667455886 -0.4326147667455886 
-0.4326147667455886 -0.3862354253048784 -0.3862354253048784 -0.3862354253048784 -0.3862354253048784 -0.3358879893791805 -0.3358879893791805 -0.3358879893791805 -0.3358879893791805 
-0.282163592531162 -0.282163592531162 -0.282163592531162 -0.282163592531162 -0.2256358219094376 -0.2256358219094376 -0.2256358219094376 -0.2256358219094376 -0.1668271882703381 
-0.1668271882703381 -0.1668271882703381 -0.1668271882703381 -0.1061946000949597 -0.1061946000949597 -0.1061946000949597 -0.1061946000949597 -0.04415118712569335 -0.04415118712569335 
-0.04415118712569335 -0.04415118712569335 0.0188760380903855 0.0188760380903855 0.0188760380903855 0.0188760380903855 0.08237744522053289 0.08237744522053289 0.08237744522053289 
0.08237744522053289 0.1457144769737788 0.1457144769737788 0.1457144769737788 0.1457144769737788 0.208114121166818 0.208114121166818 0.208114121166818 0.208114121166818 
0.2686989071646265 0.2686989071646265 0.2686989071646265 0.2686989071646265 0.32653660191957 0.32653660191957 0.32653660191957 0.32653660191957 0.3806998466703387 
0.3806998466703387 0.3806998466703387 0.3806998466703387 0.4303332101978516 0.4303332101978516 0.4303332101978516 0.4303332101978516 0.4747202473991473 0.4747202473991473 
0.4747202473991473 0.4747202473991473 0.5133315780294829 0.5133315780294829 0.5133315780294829 0.5133315780294829 0.5458330216633753 0.5458330216633753 0.5458330216633753 
0.5458330216633753 0.5720481943658512 0.5720481943658512 0.5720481943658512 0.5720481943658512 0.5918928559172467 0.5918928559172467 0.5918928559172467 0.5918928559172467 
0.605311719482222 0.605311719482222 0.605311719482222 0.605311719482222 0.6122453512334564 0.6122453512334564 0.6122453512334564 0.6122453512334564 0.612633975059651 
0.612633975059651 0.612633975059651 0.612633975059651 0.6064368894545129 0.6064368894545129 0.6064368894545129 0.6064368894545129 0.5936590925325119 0.5936590925325119 
0.5936590925325119 0.5936590925325119 0.5743847690550108 0.5743847690550108 0.5743847690550108 0.5743847690550108 0.5487914544540722 0.5487914544540722 0.5487914544540722 
0.5487914544540722 0.5171491529816322 0.5171491529816322 0.5171491529816322 0.5171491529816322 0.4798114901018285 0.4798114901018285 0.4798114901018285 0.4798114901018285 
0.4372025722116202 0.4372025722116202 0.4372025722116202 0.4372025722116202 0.3898033801571791 0.3898033801571791 0.3898033801571791 0.3898033801571791 0.3381398895538076 
0.3381398895538076 0.3381398895538076 0.3381398895538076 0.2827764280539461 0.2827764280539461 0.2827764280539461 0.2827764280539461 0.2243142340335956 0.2243142340335956 
0.2243142340335956 0.2243142340335956 0.1633911574622466 0.1633911574622466 0.1633911574622466 0.1633911574622466 0.1006771382654665 0.1006771382654665 0.1006771382654665 
0.1006771382654665 0.03686379777007022 0.03686379777007022 0.03686379777007022 0.03686379777007022 -0.0273481482834011 -0.0273481482834011 -0.0273481482834011 -0.0273481482834011 
-0.09125831436979844 -0.09125831436979844 -0.09125831436979844 -0.09125831436979844 -0.1541713992400408 -0.1541713992400408 -0.1541713992400408 -0.1541713992400408 -0.2153999815054278 
-0.2153999815054278 -0.2153999815054278 -0.2153999815054278 -0.2742714821808565 -0.2742714821808565 -0.2742714821808565 -0.2742714821808565 -0.3301343699146287 -0.3301343699146287 
-0.3301343699146287 -0.3301343699146287 -0.3823795158215795 -0.3823795158215795 -0.3823795158215795 -0.3823795158215795 -0.4304244563365006 -0.4304244563365006 -0.4304244563365006 
-0.4304244563365006 -0.4737348307772218 -0.4737348307772218 -0.4737348307772218 -0.4737348307772218 -0.5121335636371938 -0.5121335636371938 -0.5121335636371938 -0.5121335636371938 
-0.5428911066457636 -0.5428911066457636 -0.5428911066457636 -0.5428911066457636 -0.5800854773617935 -0.5800854773617935 -0.5800854773617935 -0.5800854773617935 -0.5155892675162841 
-0.5155892675162841 -0.5155892675162841 -0.5155892675162841 -0.5213528974413029 -0.5213528974413029 -0.5213528974413029 -0.5213528974413029 -0.5259869382201827 -0.5259869382201827 
-0.5259869382201827 -0.5259869382201827 -0.5260180861148684 -0.5260180861148684 -0.5260180861148684 -0.5260180861148684 -0.5205767371296629 -0.5205767371296629 -0.5205767371296629 
-0.5205767371296629 -0.5095115838538954 -0.5095115838538954 -0.5095115838538954 -0.5095115838538954 -0.4928958889569179 -0.4928958889569179 -0.4928958889569179 -0.4928958889569179 
-0.470905398924068 -0.470905398924068 -0.470905398924068 -0.470905398924068 -0.4437932319213083 -0.4437932319213083 -0.4437932319213083 -0.4437932319213083 -0.4118858988201339 
-0.4118858988201339 -0.4118858988201339 -0.4118858988201339 -0.3755788168239261 -0.3755788168239261 -0.3755788168239261 -0.3755788168239261 -0.335326031239527 -0.335326031239527 
-0.335326031239527 -0.335326031239527 -0.2916244213711022 -0.2916244213711022 -0.2916244213711022 -0.2916244213711022 -0.2449901882014578 -0.2449901882014578 -0.2449901882014578 
-0.2449901882014578 -0.1959250675690587 -0.1959250675690587 -0.1959250675690587 -0.1959250675690587 -0.1448803540705624 -0.1448803540705624 -0.1448803540705624 -0.1448803540705624 
-0.09224179530464921 -0.09224179530464921 -0.09224179530464921 -0.09224179530464921 -0.03835697648404139 -0.03835697648404139 -0.03835697648404139 -0.03835697648404139 0.01640021358301569 
0.01640021358301569 0.01640021358301569 0.01640021358301569 0.07156449534150071 0.07156449534150071 0.07156449534150071 0.07156449534150071 0.1265522915052668 0.1265522915052668 
0.1265522915052668 0.1265522915052668 0.1806805289163033 0.1806805289163033 0.1806805289163033 0.1806805289163033 0.2332057421134418 0.2332057421134418 0.2332057421134418 
0.2332057421134418 0.2833565753399073 0.2833565753399073 0.2833565753399073 0.2833565753399073 0.3303591849142463 0.3303591849142463 0.3303591849142463 0.3303591849142463 
0.3734750434054686 0.3734750434054686 0.3734750434054686 0.3734750434054686 0.4120599891992567 0.4120599891992567 0.4120599891992567 0.4120599891992567 0.4456244625199224 
0.4456244625199224 0.4456244625199224 0.4456244625199224 0.47386014982382 0.47386014982382 0.47386014982382 0.47386014982382 0.4966144000274118 0.4966144000274118 
0.4966144000274118 0.4966144000274118 0.513826584323551 0.513826584323551 0.513826584323551 0.513826584323551 0.5254621947843862 0.5254621947843862 0.5254621947843862 
0.5254621947843862 0.5314767690183979 0.5314767690183979 0.5314767690183979 0.5314767690183979 0.5318172935994472 0.5318172935994472 0.5318172935994472 0.5318172935994472 
0.5264435594448104 0.5264435594448104 0.5264435594448104 0.5264435594448104 0.5153580379855721 0.5153580379855721 0.5153580379855721 0.5153580379855721 0.498632043997983 
0.498632043997983 0.498632043997983 0.498632043997983 0.4764185406820821 0.4764185406820821 0.4764185406820821 0.4764185406820821 0.4489523250919369 0.4489523250919369 
0.4489523250919369 0.4489523250919369 0.4165417472150419 0.4165417472150419 0.4165417472150419 0.4165417472150419 0.3795567829129248 0.3795567829129248 0.3795567829129248 
0.3795567829129248 0.3384152728671992 0.3384152728671992 0.3384152728671992 0.3384152728671992 0.2935715202983051 0.2935715202983051 0.2935715202983051 0.2935715202983051 
0.2455117400569861 0.2455117400569861 0.2455117400569861 0.2455117400569861 0.1947562018306689 0.1947562018306689 0.1947562018306689 0.1947562018306689 0.141861594102847 
0.141861594102847 0.141861594102847 0.141861594102847 0.08741582657301233 0.08741582657301233 0.08741582657301233 0.08741582657301233 0.03202418144281824 0.03202418144281824 
0.03202418144281824 0.03202418144281824 -0.02370593891512331 -0.02370593891512331 -0.02370593891512331 -0.02370593891512331 -0.07917304210534545 -0.07917304210534545 -0.07917304210534545 
-0.07917304210534545 -0.1337810306971426 -0.1337810306971426 -0.1337810306971426 -0.1337810306971426 -0.1869364368305351 -0.1869364368305351 -0.1869364368305351 -0.1869364368305351 
-0.2380528148934104 -0.2380528148934104 -0.2380528148934104 -0.2380528148934104 -0.2865587922626416 -0.2865587922626416 -0.2865587922626416 -0.2865587922626416 -0.3319207303421186 
-0.3319207303421186 -0.3319207303421186 -0.3319207303421186 -0.3736316942550348 -0.3736316942550348 -0.3736316942550348 -0.3736316942550348 -0.4112294984275561 -0.4112294984275561 
-0.4112294984275561 -0.4112294984275561 -0.4445634026399534 -0.4445634026399534 -0.4445634026399534 -0.4445634026399534 -0.4712552160267559 -0.4712552160267559 -0.4712552160267559 
-0.4712552160267559 -0.5035895186734891 -0.5035895186734891 -0.5035895186734891 -0.5035895186734891 -0.4306762383046218 -0.4306762383046218 -0.4306762383046218 -0.4306762383046218 
-0.4354825312792372 -0.4354825312792372 -0.4354825312792372 -0.4354825312792372 -0.4393571769312461 -0.4393571769312461 -0.4393571769312461 -0.4393571769312461 -0.4393996147355377 
-0.4393996147355377 -0.4393996147355377 -0.4393996147355377 -0.4348683175611381 -0.4348683175611381 -0.4348683175611381 -0.4348683175611381 -0.4256288864471793 -0.4256288864471793 
-0.4256288864471793 -0.4256288864471793 -0.4117440055354195 -0.4117440055354195 -0.4117440055354195 -0.4117440055354195 -0.3933666300940346 -0.3933666300940346 -0.3933666300940346 
-0.3933666300940346 -0.3707143624175222 -0.3707143624175222 -0.3707143624175222 -0.3707143624175222 -0.3440632614670854 -0.3440632614670854 -0.3440632614670854 -0.3440632614670854 
-0.3137426514902146 -0.3137426514902146 -0.3137426514902146 -0.3137426514902146 -0.2801281525200293 -0.2801281525200293 -0.2801281525200293 -0.2801281525200293 -0.2436327798360623 
-0.2436327798360623 -0.2436327798360623 -0.2436327798360623 -0.2046895994981829 -0.2046895994981829 -0.2046895994981829 -0.2046895994981829 -0.1637186823420271 -0.1637186823420271 
-0.1637186823420271 -0.1637186823420271 -0.1210882130263276 -0.1210882130263276 -0.1210882130263276 -0.1210882130263276 -0.07710138057820246 -0.07710138057820246 -0.07710138057820246 
-0.07710138057820246 -0.03203509985017822 -0.03203509985017822 -0.03203509985017822 -0.03203509985017822 0.01378460475934034 0.01378460475934034 0.01378460475934034 0.01378460475934034 
0.05992469291250636 0.05992469291250636 0.05992469291250636 0.05992469291250636 0.1058489980748946 0.1058489980748946 0.1058489980748946 0.1058489980748946 0.1509729037964965 
0.1509729037964965 0.1509729037964965 0.1509729037964965 0.1947136243095808 0.1947136243095808 0.1947136243095808 0.1947136243095808 0.2364953714711231 0.2364953714711231 
0.2364953714711231 0.2364953714711231 0.275725152583759 0.275725152583759 0.275725152583759 0.275725152583759 0.3117914887589002 0.3117914887589002 0.3117914887589002 
0.3117914887589002 0.34411686043672 0.34411686043672 0.34411686043672 0.34411686043672 0.3722397362815715 0.3722397362815715 0.3722397362815715 0.3722397362815715 
0.3958697083360651 0.3958697083360651 0.3958697083360651 0.3958697083360651 0.4148780420701382 0.4148780420701382 0.4148780420701382 0.4148780420701382 0.429234005169835 
0.429234005169835 0.429234005169835 0.429234005169835 0.4389311761946331 0.4389311761946331 0.4389311761946331 0.4389311761946331 0.4439447272797509 0.4439447272797509 
0.4439447272797509 0.4439447272797509 0.44423033620574 0.44423033620574 0.44423033620574 0.44423033620574 0.4397490039390124 0.4397490039390124 0.4397490039390124 
0.4397490039390124 0.4304978683484065 0.4304978683484065 0.4304978683484065 0.4304978683484065 0.4165334843744 0.4165334843744 0.4165334843744 0.4165334843744 
0.3979826061601192 0.3979826061601192 0.3979826061601192 0.3979826061601192 0.3750418488214752 0.3750418488214752 0.3750418488214752 0.3750418488214752 0.347970810750715 
0.347970810750715 0.347970810750715 0.347970810750715 0.3170806463823315 0.3170806463823315 0.3170806463823315 0.3170806463823315 0.2827201625942148 0.2827201625942148 
0.2827201625942148 0.2827201625942148 0.2452651348230707 0.2452651348230707 0.2452651348230707 0.2452651348230707 0.2051168054123132 0.2051168054123132 0.2051168054123132 
0.2051168054123132 0.1627087374344048 0.1627087374344048 0.1627087374344048 0.1627087374344048 0.1185120013889732 0.1185120013889732 0.1185120013889732 0.1185120013889732 
0.07302804229869744 0.07302804229869744 0.07302804229869744 0.07302804229869744 0.02676942492111596 0.02676942492111596 0.02676942492111596 0.02676942492111596 -0.01975919260263998 
-0.01975919260263998 -0.01975919260263998 -0.01975919260263998 -0.06606689684257396 -0.06606689684257396 -0.06606689684257396 -0.06606689684257396 -0.1116684453668163 -0.1116684453668163 
-0.1116684453668163 -0.1116684453668163 -0.1560737255710294 -0.1560737255710294 -0.1560737255710294 -0.1560737255710294 -0.198788841695354 -0.198788841695354 -0.198788841695354 
-0.198788841695354 -0.23932699007311 -0.23932699007311 -0.23932699007311 -0.23932699007311 -0.2772340398044378 -0.2772340398044378 -0.2772340398044378 -0.2772340398044378 
-0.3120835312689483 -0.3120835312689483 -0.3120835312689483 -0.3120835312689483 -0.3434913164389729 -0.3434913164389729 -0.3434913164389729 -0.3434913164389729 -0.371336594645913 
-0.371336594645913 -0.371336594645913 -0.371336594645913 -0.3936263877522449 -0.3936263877522449 -0.3936263877522449 -0.3936263877522449 -0.4206632003767896 -0.4206632003767896 
-0.4206632003767896 -0.4206632003767896 -0.3408412763011699 -0.3408412763011699 -0.3408412763011699 -0.3408412763011699 -0.3446446701382183 -0.3446446701382183 -0.3446446701382183 
-0.3446446701382183 -0.3477117351643012 -0.3477117351643012 -0.3477117351643012 -0.3477117351643012 -0.3477537454843004 -0.3477537454843004 -0.3477537454843004 -0.3477537454843004 
-0.3441815935918869 -0.3441815935918869 -0.3441815935918869 -0.3441815935918869 -0.3368814058738262 -0.3368814058738262 -0.3368814058738262 -0.3368814058738262 -0.325897207661805 
-0.325897207661805 -0.325897207661805 -0.325897207661805 -0.311349461106095 -0.311349461106095 -0.311349461106095 -0.311349461106095 -0.2934141545387684 -0.2934141545387684 
-0.2934141545387684 -0.2934141545387684 -0.2723144776929872 -0.2723144776929872 -0.2723144776929872 -0.2723144776929872 -0.2483131817442462 -0.2483131817442462 -0.2483131817442462 
-0.2483131817442462 -0.2217072658838146 -0.2217072658838146 -0.2217072658838146 -0.2217072658838146 -0.1928250871817374 -0.1928250871817374 -0.1928250871817374 -0.1928250871817374 
-0.1620140675320658 -0.1620140675320658 -0.1620140675320658 -0.1620140675320658 -0.1296065053987204 -0.1296065053987204 -0.1296065053987204 -0.1296065053987204 -0.09587719419341841 
-0.09587719419341841 -0.09587719419341841 -0.09587719419341841 -0.0610357974674106 -0.0610357974674106 -0.0610357974674106 -0.0610357974674106 -0.0252837571454421 -0.0252837571454421 
-0.0252837571454421 -0.0252837571454421 0.01109482394903855 0.01109482394903855 0.01109482394903855 0.01109482394903855 0.04768617510319479 0.04768617510319479 0.04768617510319479 
0.04768617510319479 0.08399325877370446 0.08399325877370446 0.08399325877370446 0.08399325877370446 0.1195379001125645 0.1195379001125645 0.1195379001125645 0.1195379001125645 
0.1539241058640639 0.1539241058640639 0.1539241058640639 0.1539241058640639 0.1868055555235244 0.1868055555235244 0.1868055555235244 0.1868055555235244 0.2177962936588776 
0.2177962936588776 0.2177962936588776 0.2177962936588776 0.2464203384102202 0.2464203384102202 0.2464203384102202 0.2464203384102202 0.2721586968306218 0.2721586968306218 
0.2721586968306218 0.2721586968306218 0.2945628284763761 0.2945628284763761 0.2945628284763761 0.2945628284763761 0.3133487296509367 0.3133487296509367 0.3133487296509367 
0.3133487296509367 0.3284087173002612 0.3284087173002612 0.3284087173002612 0.3284087173002612 0.3397463827847494 0.3397463827847494 0.3397463827847494 0.3397463827847494 
0.3473903394322851 0.3473903394322851 0.3473903394322851 0.3473903394322851 0.3513408107188659 0.3513408107188659 0.3513408107188659 0.3513408107188659 0.3515655369042275 
0.3515655369042275 0.3515655369042275 0.3515655369042275 0.348027226446032 0.348027226446032 0.348027226446032 0.348027226446032 0.3407163308200774 0.3407163308200774 
0.3407163308200774 0.3407163308200774 0.3296732039766638 0.3296732039766638 0.3296732039766638 0.3296732039766638 0.3149965758241524 0.3149965758241524 0.3149965758241524 
0.3149965758241524 0.296842839870176 0.296842839870176 0.296842839870176 0.296842839870176 0.2754199902137062 0.2754199902137062 0.2754199902137062 0.2754199902137062 
0.2509766700617416 0.2509766700617416 0.2509766700617416 0.2509766700617416 0.2237882846112393 0.2237882846112393 0.2237882846112393 0.2237882846112393 0.1941472880164521 
0.1941472880164521 0.1941472880164521 0.1941472880164521 0.162365353774594 0.162365353774594 0.162365353774594 0.162365353774594 0.1287854246934775 0.1287854246934775 
0.1287854246934775 0.1287854246934775 0.09378964149459518 0.09378964149459518 0.09378964149459518 0.09378964149459518 0.05778941233529589 0.05778941233529589 0.05778941233529589 
0.05778941233529589 0.02119953671142418 0.02119953671142418 0.02119953671142418 0.02119953671142418 -0.01558528601581497 -0.01558528601581497 -0.01558528601581497 -0.01558528601581497 
-0.05219361540808985 -0.05219361540808985 -0.05219361540808985 -0.05219361540808985 -0.08826011508618471 -0.08826011508618471 -0.08826011508618471 -0.08826011508618471 -0.1234055896848516 
-0.1234055896848516 -0.1234055896848516 -0.1234055896848516 -0.1572339752327496 -0.1572339752327496 -0.1572339752327496 -0.1572339752327496 -0.1893464789783864 -0.1893464789783864 
-0.1893464789783864 -0.1893464789783864 -0.2193711686894592 -0.2193711686894592 -0.2193711686894592 -0.2193711686894592 -0.2469651823074981 -0.2469651823074981 -0.2469651823074981 
-0.2469651823074981 -0.2718263670097901 -0.2718263670097901 -0.2718263670097901 -0.2718263670097901 -0.2938650717713122 -0.2938650717713122 -0.2938650717713122 -0.2938650717713122 
-0.3115023763622408 -0.3115023763622408 -0.3115023763622408 -0.3115023763622408 -0.3329141779639938 -0.3329141779639938 -0.3329141779639938 -0.3329141779639938 -0.247222045285127 
-0.247222045285127 -0.247222045285127 -0.247222045285127 -0.2499843373196501 -0.2499843373196501 -0.2499843373196501 -0.2499843373196501 -0.2522123788999334 -0.2522123788999334 
-0.2522123788999334 -0.2522123788999334 -0.2522485893687517 -0.2522485893687517 -0.2522485893687517 -0.2522485893687517 -0.249668341556047 -0.249668341556047 -0.249668341556047 
-0.249668341556047 -0.2443872881542687 -0.2443872881542687 -0.2443872881542687 -0.2443872881542687 -0.2364323836180491 -0.2364323836180491 -0.2364323836180491 -0.2364323836180491 
-0.2258865698207568 -0.2258865698207568 -0.2258865698207568 -0.2258865698207568 -0.2128761611848607 -0.2128761611848607 -0.2128761611848607 -0.2128761611848607 -0.1975640536734679 
-0.1975640536734679 -0.1975640536734679 -0.1975640536734679 -0.1801419240191007 -0.1801419240191007 -0.1801419240191007 -0.1801419240191007 -0.1608272953288411 -0.1608272953288411 
-0.1608272953288411 -0.1608272953288411 -0.1398658637175423 -0.1398658637175423 -0.1398658637175423 -0.1398658637175423 -0.1175216630406799 -0.1175216630406799 -0.1175216630406799 
-0.1175216630406799 -0.09403818427881357 -0.09403818427881357 -0.09403818427881357 -0.09403818427881357 -0.06959048873750419 -0.06959048873750419 -0.06959048873750419 -0.06959048873750419 
-0.0442850905808953 -0.0442850905808953 -0.0442850905808953 -0.0442850905808953 -0.01824063793134952 -0.01824063793134952 -0.01824063793134952 -0.01824063793134952 0.008300845149179194 