Title = Result/Linear_Advection_2D/FVM/MLP_u1_Least_Square/Sine_Wave_2D/Quad60/
FileType = Solution
Variables = q
Zone T = Result/Linear_Advection_2D/FVM/MLP_u1_Least_Square/Sine_Wave_2D/Quad60/
ZoneType = FETriangle
Nodes = 14400
Elements = 7200
DataPacking = Block
StrandID = 1
SolutionTime = 0
0.00273905231586334 0.00273905231586334 0.00273905231586334 0.00273905231586334 0.008187147317233875 0.008187147317233875 0.008187147317233875 0.008187147317233875 0.01354554221932608 0.01354554221932608 
0.01354554221932608 0.01354554221932608 0.01875552932627639 0.01875552932627639 0.01875552932627639 0.01875552932627639 0.02376002692908119 0.02376002692908119 0.02376002692908119 
0.02376002692908119 0.02850420470474568 0.02850420470474568 0.02850420470474568 0.02850420470474568 0.03293608444877669 0.03293608444877669 0.03293608444877669 0.03293608444877669 
0.03700710955926811 0.03700710955926811 0.03700710955926811 0.03700710955926811 0.04067267703319265 0.04067267703319265 0.04067267703319265 0.04067267703319265 0.04389262614623668 
0.04389262614623668 0.04389262614623668 0.04389262614623668 0.04663167846210002 0.04663167846210002 0.04663167846210002 0.04663167846210002 0.04885982435042652 0.04885982435042652 
0.04885982435042652 0.04885982435042652 0.05055265177859418 0.05055265177859418 0.05055265177859418 0.05055265177859418 0.05169161377505305 0.05169161377505305 0.05169161377505305 
0.05169161377505305 0.05226423163382684 0.05226423163382684 0.05226423163382684 0.05226423163382684 0.05226423163382684 0.05226423163382684 0.05226423163382684 0.05226423163382684 
0.05169161377505303 0.05169161377505303 0.05169161377505303 0.05169161377505303 0.05055265177859415 0.05055265177859415 0.05055265177859415 0.05055265177859415 0.04885982435042648 
0.04885982435042648 0.04885982435042648 0.04885982435042648 0.04663167846209999 0.04663167846209999 0.04663167846209999 0.04663167846209999 0.04389262614623665 0.04389262614623665 
0.04389262614623665 0.04389262614623665 0.04067267703319261 0.04067267703319261 0.04067267703319261 0.04067267703319261 0.03700710955926809 0.03700710955926809 0.03700710955926809 
0.03700710955926809 0.03293608444877666 0.03293608444877666 0.03293608444877666 0.03293608444877666 0.02850420470474568 0.02850420470474568 0.02850420470474568 0.02850420470474568 
0.0237600269290812 0.0237600269290812 0.0237600269290812 0.0237600269290812 0.01875552932627637 0.01875552932627637 0.01875552932627637 0.01875552932627637 0.01354554221932605 
0.01354554221932605 0.01354554221932605 0.01354554221932605 0.008187147317233889 0.008187147317233889 0.008187147317233889 0.008187147317233889 0.002739052315863334 0.002739052315863334 
0.002739052315863334 0.002739052315863334 -0.002739052315863321 -0.002739052315863321 -0.002739052315863321 -0.002739052315863321 -0.008187147317233832 -0.008187147317233832 -0.008187147317233832 
-0.008187147317233832 -0.01354554221932607 -0.01354554221932607 -0.01354554221932607 -0.01354554221932607 -0.01875552932627637 -0.01875552932627637 -0.01875552932627637 -0.01875552932627637 
-0.02376002692908113 -0.02376002692908113 -0.02376002692908113 -0.02376002692908113 -0.02850420470474565 -0.02850420470474565 -0.02850420470474565 -0.02850420470474565 -0.03293608444877665 
-0.03293608444877665 -0.03293608444877665 -0.03293608444877665 -0.03700710955926804 -0.03700710955926804 -0.03700710955926804 -0.03700710955926804 -0.04067267703319256 -0.04067267703319256 
-0.04067267703319256 -0.04067267703319256 -0.04389262614623658 -0.04389262614623658 -0.04389262614623658 -0.04389262614623658 -0.04663167846209993 -0.04663167846209993 -0.04663167846209993 
-0.04663167846209993 -0.04885982435042643 -0.04885982435042643 -0.04885982435042643 -0.04885982435042643 -0.05055265177859408 -0.05055265177859408 -0.05055265177859408 -0.05055265177859408 
-0.05169161377505298 -0.05169161377505298 -0.05169161377505298 -0.05169161377505298 -0.05226423163382678 -0.05226423163382678 -0.05226423163382678 -0.05226423163382678 -0.05226423163382678 
-0.05226423163382678 -0.05226423163382678 -0.05226423163382678 -0.05169161377505298 -0.05169161377505298 -0.05169161377505298 -0.05169161377505298 -0.05055265177859408 -0.05055265177859408 
-0.05055265177859408 -0.05055265177859408 -0.04885982435042641 -0.04885982435042641 -0.04885982435042641 -0.04885982435042641 -0.04663167846209994 -0.04663167846209994 -0.04663167846209994 
-0.04663167846209994 -0.0438926261462366 -0.0438926261462366 -0.0438926261462366 -0.0438926261462366 -0.04067267703319254 -0.04067267703319254 -0.04067267703319254 -0.04067267703319254 
-0.03700710955926802 -0.03700710955926802 -0.03700710955926802 -0.03700710955926802 -0.03293608444877662 -0.03293608444877662 -0.03293608444877662 -0.03293608444877662 -0.02850420470474561 
-0.02850420470474561 -0.02850420470474561 -0.02850420470474561 -0.02376002692908114 -0.02376002692908114 -0.02376002692908114 -0.02376002692908114 -0.01875552932627641 -0.01875552932627641 
-0.01875552932627641 -0.01875552932627641 -0.01354554221932608 -0.01354554221932608 -0.01354554221932608 -0.01354554221932608 -0.008187147317233863 -0.008187147317233863 -0.008187147317233863 
-0.008187147317233863 -0.00273905231586336 -0.00273905231586336 -0.00273905231586336 -0.00273905231586336 0.008187147317233858 0.008187147317233858 0.008187147317233858 0.008187147317233858 
0.02447174185242323 0.02447174185242323 0.02447174185242323 0.02447174185242323 0.04048821886283626 0.04048821886283626 0.04048821886283626 0.04048821886283626 0.05606109847468355 
0.05606109847468355 0.05606109847468355 0.05606109847468355 0.07101976096010312 0.07101976096010312 0.07101976096010312 0.07101976096010312 0.08520031608260339 0.08520031608260339 
0.08520031608260339 0.08520031608260339 0.09844739871279032 0.09844739871279032 0.09844739871279032 0.09844739871279032 0.1106158710412373 0.1106158710412373 0.1106158710412373 
0.1106158710412373 0.1215724127386972 0.1215724127386972 0.1215724127386972 0.1215724127386972 0.1311969816415291 0.1311969816415291 0.1311969816415291 0.1311969816415291 
0.139384128958763 0.139384128958763 0.139384128958763 0.139384128958763 0.1460441545911205 0.1460441545911205 0.1460441545911205 0.1460441545911205 0.1511040899040735 
0.1511040899040735 0.1511040899040735 0.1511040899040735 0.1545084971874738 0.1545084971874738 0.1545084971874738 0.1545084971874738 0.1562200770427065 0.1562200770427065 
0.1562200770427065 0.1562200770427065 0.1562200770427065 0.1562200770427065 0.1562200770427065 0.1562200770427065 0.1545084971874738 0.1545084971874738 0.1545084971874738 
0.1545084971874738 0.1511040899040735 0.1511040899040735 0.1511040899040735 0.1511040899040735 0.1460441545911204 0.1460441545911204 0.1460441545911204 0.1460441545911204 
0.139384128958763 0.139384128958763 0.139384128958763 0.139384128958763 0.1311969816415291 0.1311969816415291 0.1311969816415291 0.1311969816415291 0.1215724127386972 
0.1215724127386972 0.1215724127386972 0.1215724127386972 0.1106158710412372 0.1106158710412372 0.1106158710412372 0.1106158710412372 0.09844739871279026 0.09844739871279026 
0.09844739871279026 0.09844739871279026 0.08520031608260341 0.08520031608260341 0.08520031608260341 0.08520031608260341 0.07101976096010319 0.07101976096010319 0.07101976096010319 
0.07101976096010319 0.05606109847468352 0.05606109847468352 0.05606109847468352 0.05606109847468352 0.04048821886283628 0.04048821886283628 0.04048821886283628 0.04048821886283628 
0.02447174185242324 0.02447174185242324 0.02447174185242324 0.02447174185242324 0.008187147317233849 0.008187147317233849 0.008187147317233849 0.008187147317233849 -0.008187147317233811 
-0.008187147317233811 -0.008187147317233811 -0.008187147317233811 -0.02447174185242314 -0.02447174185242314 -0.02447174185242314 -0.02447174185242314 -0.0404882188628363 -0.0404882188628363 
-0.0404882188628363 -0.0404882188628363 -0.05606109847468354 -0.05606109847468354 -0.05606109847468354 -0.05606109847468354 -0.07101976096010301 -0.07101976096010301 -0.07101976096010301 
-0.07101976096010301 -0.08520031608260337 -0.08520031608260337 -0.08520031608260337 -0.08520031608260337 -0.09844739871279028 -0.09844739871279028 -0.09844739871279028 -0.09844739871279028 
-0.1106158710412371 -0.1106158710412371 -0.1106158710412371 -0.1106158710412371 -0.1215724127386971 -0.1215724127386971 -0.1215724127386971 -0.1215724127386971 -0.1311969816415289 
-0.1311969816415289 -0.1311969816415289 -0.1311969816415289 -0.1393841289587628 -0.1393841289587628 -0.1393841289587628 -0.1393841289587628 -0.1460441545911203 -0.1460441545911203 
-0.1460441545911203 -0.1460441545911203 -0.1511040899040734 -0.1511040899040734 -0.1511040899040734 -0.1511040899040734 -0.1545084971874738 -0.1545084971874738 -0.1545084971874738 
-0.1545084971874738 -0.1562200770427065 -0.1562200770427065 -0.1562200770427065 -0.1562200770427065 -0.1562200770427065 -0.1562200770427065 -0.1562200770427065 -0.1562200770427065 
-0.1545084971874738 -0.1545084971874738 -0.1545084971874738 -0.1545084971874738 -0.1511040899040734 -0.1511040899040734 -0.1511040899040734 -0.1511040899040734 -0.1460441545911204 
-0.1460441545911204 -0.1460441545911204 -0.1460441545911204 -0.1393841289587629 -0.1393841289587629 -0.1393841289587629 -0.1393841289587629 -0.131196981641529 -0.131196981641529 
-0.131196981641529 -0.131196981641529 -0.1215724127386971 -0.1215724127386971 -0.1215724127386971 -0.1215724127386971 -0.1106158710412372 -0.1106158710412372 -0.1106158710412372 
-0.1106158710412372 -0.09844739871279017 -0.09844739871279017 -0.09844739871279017 -0.09844739871279017 -0.08520031608260344 -0.08520031608260344 -0.08520031608260344 -0.08520031608260344 
-0.0710197609601031 -0.0710197609601031 -0.0710197609601031 -0.0710197609601031 -0.05606109847468357 -0.05606109847468357 -0.05606109847468357 -0.05606109847468357 -0.04048821886283635 
-0.04048821886283635 -0.04048821886283635 -0.04048821886283635 -0.02447174185242325 -0.02447174185242325 -0.02447174185242325 -0.02447174185242325 -0.008187147317233934 -0.008187147317233934 
-0.008187147317233934 -0.008187147317233934 0.01354554221932604 0.01354554221932604 0.01354554221932604 0.01354554221932604 0.04048821886283623 0.04048821886283623 0.04048821886283623 
0.04048821886283623 0.0669872981077807 0.0669872981077807 0.0669872981077807 0.0669872981077807 0.09275245049666299 0.09275245049666299 0.09275245049666299 0.09275245049666299 
0.1175013876282057 0.1175013876282057 0.1175013876282057 0.1175013876282057 0.1409629549681477 0.1409629549681477 0.1409629549681477 0.1409629549681477 0.1628801026750639 
0.1628801026750639 0.1628801026750639 0.1628801026750639 0.1830127018922194 0.1830127018922194 0.1830127018922194 0.1830127018922194 0.2011401756495736 0.2011401756495736 
0.2011401756495736 0.2011401756495736 0.2170639155512235 0.2170639155512235 0.2170639155512235 0.2170639155512235 0.2306094577705495 0.2306094577705495 0.2306094577705495 
0.2306094577705495 0.2416283945124099 0.2416283945124099 0.2416283945124099 0.2416283945124099 0.2500000000000001 0.2500000000000001 0.2500000000000001 0.2500000000000001 
0.255632553171727 0.255632553171727 0.255632553171727 0.255632553171727 0.2584643425963535 0.2584643425963535 0.2584643425963535 0.2584643425963535 0.2584643425963535 
0.2584643425963535 0.2584643425963535 0.2584643425963535 0.2556325531717269 0.2556325531717269 0.2556325531717269 0.2556325531717269 0.2500000000000001 0.2500000000000001 
0.2500000000000001 0.2500000000000001 0.2416283945124099 0.2416283945124099 0.2416283945124099 0.2416283945124099 0.2306094577705496 0.2306094577705496 0.2306094577705496 
0.2306094577705496 0.2170639155512236 0.2170639155512236 0.2170639155512236 0.2170639155512236 0.2011401756495738 0.2011401756495738 0.2011401756495738 0.2011401756495738 
0.1830127018922195 0.1830127018922195 0.1830127018922195 0.1830127018922195 0.1628801026750639 0.1628801026750639 0.1628801026750639 0.1628801026750639 0.1409629549681478 
0.1409629549681478 0.1409629549681478 0.1409629549681478 0.1175013876282058 0.1175013876282058 0.1175013876282058 0.1175013876282058 0.09275245049666309 0.09275245049666309 
0.09275245049666309 0.09275245049666309 0.06698729810778077 0.06698729810778077 0.06698729810778077 0.06698729810778077 0.04048821886283637 0.04048821886283637 0.04048821886283637 
0.04048821886283637 0.01354554221932603 0.01354554221932603 0.01354554221932603 0.01354554221932603 -0.01354554221932596 -0.01354554221932596 -0.01354554221932596 -0.01354554221932596 
-0.04048821886283608 -0.04048821886283608 -0.04048821886283608 -0.04048821886283608 -0.06698729810778078 -0.06698729810778078 -0.06698729810778078 -0.06698729810778078 -0.09275245049666311 
-0.09275245049666311 -0.09275245049666311 -0.09275245049666311 -0.1175013876282056 -0.1175013876282056 -0.1175013876282056 -0.1175013876282056 -0.1409629549681477 -0.1409629549681477 
-0.1409629549681477 -0.1409629549681477 -0.1628801026750639 -0.1628801026750639 -0.1628801026750639 -0.1628801026750639 -0.1830127018922193 -0.1830127018922193 -0.1830127018922193 
-0.1830127018922193 -0.2011401756495736 -0.2011401756495736 -0.2011401756495736 -0.2011401756495736 -0.2170639155512233 -0.2170639155512233 -0.2170639155512233 -0.2170639155512233 
-0.2306094577705494 -0.2306094577705494 -0.2306094577705494 -0.2306094577705494 -0.2416283945124098 -0.2416283945124098 -0.2416283945124098 -0.2416283945124098 -0.25 
-0.25 -0.25 -0.25 -0.2556325531717268 -0.2556325531717268 -0.2556325531717268 -0.2556325531717268 -0.2584643425963534 -0.2584643425963534 
-0.2584643425963534 -0.2584643425963534 -0.2584643425963534 -0.2584643425963534 -0.2584643425963534 -0.2584643425963534 -0.2556325531717269 -0.2556325531717269 -0.2556325531717269 
-0.2556325531717269 -0.25 -0.25 -0.25 -0.25 -0.2416283945124099 -0.2416283945124099 -0.2416283945124099 -0.2416283945124099 
-0.2306094577705495 -0.2306094577705495 -0.2306094577705495 -0.2306094577705495 -0.2170639155512235 -0.2170639155512235 -0.2170639155512235 -0.2170639155512235 -0.2011401756495736 
-0.2011401756495736 -0.2011401756495736 -0.2011401756495736 -0.1830127018922194 -0.1830127018922194 -0.1830127018922194 -0.1830127018922194 -0.162880102675064 -0.162880102675064 
-0.162880102675064 -0.162880102675064 -0.1409629549681477 -0.1409629549681477 -0.1409629549681477 -0.1409629549681477 -0.117501387628206 -0.117501387628206 -0.117501387628206 
-0.117501387628206 -0.0927524504966631 -0.0927524504966631 -0.0927524504966631 -0.0927524504966631 -0.06698729810778066 -0.06698729810778066 -0.06698729810778066 -0.06698729810778066 
-0.04048821886283628 -0.04048821886283628 -0.04048821886283628 -0.04048821886283628 -0.01354554221932594 -0.01354554221932594 -0.01354554221932594 -0.01354554221932594 0.01875552932627634 
0.01875552932627634 0.01875552932627634 0.01875552932627634 0.0560610984746835 0.0560610984746835 0.0560610984746835 0.0560610984746835 0.09275245049666297 0.09275245049666297 
0.09275245049666297 0.09275245049666297 0.1284275872613029 0.1284275872613029 0.1284275872613029 0.1284275872613029 0.1626956445047076 0.1626956445047076 0.1626956445047076 
0.1626956445047076 0.1951811742206662 0.1951811742206662 0.1951811742206662 0.1951811742206662 0.2255282581475768 0.2255282581475768 0.2255282581475768 0.2255282581475768 
0.2534044072834003 0.2534044072834003 0.2534044072834003 0.2534044072834003 0.2785042047047456 0.2785042047047456 0.2785042047047456 0.2785042047047456 0.3005526517785941 
0.3005526517785941 0.3005526517785941 0.3005526517785941 0.3193081811048704 0.3193081811048704 0.3193081811048704 0.3193081811048704 0.3345653031794292 0.3345653031794292 
0.3345653031794292 0.3345653031794292 0.3461568577800633 0.3461568577800633 0.3461568577800633 0.3461568577800633 0.3539558454088797 0.3539558454088797 0.3539558454088797 
0.3539558454088797 0.3578768187253738 0.3578768187253738 0.3578768187253738 0.3578768187253738 0.3578768187253739 0.3578768187253739 0.3578768187253739 0.3578768187253739 
0.3539558454088797 0.3539558454088797 0.3539558454088797 0.3539558454088797 0.3461568577800634 0.3461568577800634 0.3461568577800634 0.3461568577800634 0.3345653031794292 
0.3345653031794292 0.3345653031794292 0.3345653031794292 0.3193081811048704 0.3193081811048704 0.3193081811048704 0.3193081811048704 0.3005526517785942 0.3005526517785942 
0.3005526517785942 0.3005526517785942 0.2785042047047457 0.2785042047047457 0.2785042047047457 0.2785042047047457 0.2534044072834004 0.2534044072834004 0.2534044072834004 
0.2534044072834004 0.2255282581475768 0.2255282581475768 0.2255282581475768 0.2255282581475768 0.1951811742206664 0.1951811742206664 0.1951811742206664 0.1951811742206664 
0.1626956445047076 0.1626956445047076 0.1626956445047076 0.1626956445047076 0.128427587261303 0.128427587261303 0.128427587261303 0.128427587261303 0.09275245049666291 
0.09275245049666291 0.09275245049666291 0.09275245049666291 0.05606109847468353 0.05606109847468353 0.05606109847468353 0.05606109847468353 0.01875552932627633 0.01875552932627633 
0.01875552932627633 0.01875552932627633 -0.01875552932627624 -0.01875552932627624 -0.01875552932627624 -0.01875552932627624 -0.0560610984746833 -0.0560610984746833 -0.0560610984746833 
-0.0560610984746833 -0.0927524504966631 -0.0927524504966631 -0.0927524504966631 -0.0927524504966631 -0.1284275872613029 -0.1284275872613029 -0.1284275872613029 -0.1284275872613029 
-0.1626956445047077 -0.1626956445047077 -0.1626956445047077 -0.1626956445047077 -0.1951811742206664 -0.1951811742206664 -0.1951811742206664 -0.1951811742206664 -0.2255282581475768 
-0.2255282581475768 -0.2255282581475768 -0.2255282581475768 -0.2534044072834003 -0.2534044072834003 -0.2534044072834003 -0.2534044072834003 -0.2785042047047457 -0.2785042047047457 
-0.2785042047047457 -0.2785042047047457 -0.3005526517785941 -0.3005526517785941 -0.3005526517785941 -0.3005526517785941 -0.3193081811048704 -0.3193081811048704 -0.3193081811048704 
-0.3193081811048704 -0.3345653031794291 -0.3345653031794291 -0.3345653031794291 -0.3345653031794291 -0.3461568577800632 -0.3461568577800632 -0.3461568577800632 -0.3461568577800632 
-0.3539558454088796 -0.3539558454088796 -0.3539558454088796 -0.3539558454088796 -0.3578768187253739 -0.3578768187253739 -0.3578768187253739 -0.3578768187253739 -0.3578768187253739 
-0.3578768187253739 -0.3578768187253739 -0.3578768187253739 -0.3539558454088797 -0.3539558454088797 -0.3539558454088797 -0.3539558454088797 -0.3461568577800634 -0.3461568577800634 
-0.3461568577800634 -0.3461568577800634 -0.3345653031794291 -0.3345653031794291 -0.3345653031794291 -0.3345653031794291 -0.3193081811048704 -0.3193081811048704 -0.3193081811048704 
-0.3193081811048704 -0.300552651778594 -0.300552651778594 -0.300552651778594 -0.300552651778594 -0.2785042047047458 -0.2785042047047458 -0.2785042047047458 -0.2785042047047458 
-0.2534044072834004 -0.2534044072834004 -0.2534044072834004 -0.2534044072834004 -0.2255282581475767 -0.2255282581475767 -0.2255282581475767 -0.2255282581475767 -0.1951811742206665 
-0.1951811742206665 -0.1951811742206665 -0.1951811742206665 -0.1626956445047076 -0.1626956445047076 -0.1626956445047076 -0.1626956445047076 -0.128427587261303 -0.128427587261303 
-0.128427587261303 -0.128427587261303 -0.09275245049666293 -0.09275245049666293 -0.09275245049666293 -0.09275245049666293 -0.05606109847468357 -0.05606109847468357 -0.05606109847468357 
-0.05606109847468357 -0.01875552932627621 -0.01875552932627621 -0.01875552932627621 -0.01875552932627621 0.02376002692908112 0.02376002692908112 0.02376002692908112 0.02376002692908112 
0.07101976096010307 0.07101976096010307 0.07101976096010307 0.07101976096010307 0.1175013876282057 0.1175013876282057 0.1175013876282057 0.1175013876282057 0.1626956445047076 
0.1626956445047076 0.1626956445047076 0.1626956445047076 0.2061073738537634 0.2061073738537634 0.2061073738537634 0.2061073738537634 0.2472609476841366 0.2472609476841366 
0.2472609476841366 0.2472609476841366 0.2857054788290028 0.2857054788290028 0.2857054788290028 0.2857054788290028 0.3210197609601031 0.3210197609601031 0.3210197609601031 
0.3210197609601031 0.3528168834124207 0.3528168834124207 0.3528168834124207 0.3528168834124207 0.3807484702583926 0.3807484702583926 0.3807484702583926 0.3807484702583926 
0.4045084971874737 0.4045084971874737 0.4045084971874737 0.4045084971874737 0.4238366443725239 0.4238366443725239 0.4238366443725239 0.4238366443725239 0.4385211485883088 
0.4385211485883088 0.4385211485883088 0.4385211485883088 0.4484011233337102 0.4484011233337102 0.4484011233337102 0.4484011233337102 0.4533683215379001 0.4533683215379001 
0.4533683215379001 0.4533683215379001 0.4533683215379001 0.4533683215379001 0.4533683215379001 0.4533683215379001 0.4484011233337102 0.4484011233337102 0.4484011233337102 
0.4484011233337102 0.4385211485883089 0.4385211485883089 0.4385211485883089 0.4385211485883089 0.4238366443725239 0.4238366443725239 0.4238366443725239 0.4238366443725239 
0.4045084971874737 0.4045084971874737 0.4045084971874737 0.4045084971874737 0.3807484702583927 0.3807484702583927 0.3807484702583927 0.3807484702583927 0.3528168834124207 
0.3528168834124207 0.3528168834124207 0.3528168834124207 0.321019760960103 0.321019760960103 0.321019760960103 0.321019760960103 0.2857054788290027 0.2857054788290027 
0.2857054788290027 0.2857054788290027 0.2472609476841368 0.2472609476841368 0.2472609476841368 0.2472609476841368 0.2061073738537636 0.2061073738537636 0.2061073738537636 
0.2061073738537636 0.1626956445047077 0.1626956445047077 0.1626956445047077 0.1626956445047077 0.1175013876282058 0.1175013876282058 0.1175013876282058 0.1175013876282058 
0.07101976096010332 0.07101976096010332 0.07101976096010332 0.07101976096010332 0.02376002692908131 0.02376002692908131 0.02376002692908131 0.02376002692908131 -0.023760026929081 
-0.023760026929081 -0.023760026929081 -0.023760026929081 -0.0710197609601028 -0.0710197609601028 -0.0710197609601028 -0.0710197609601028 -0.1175013876282059 -0.1175013876282059 
-0.1175013876282059 -0.1175013876282059 -0.1626956445047076 -0.1626956445047076 -0.1626956445047076 -0.1626956445047076 -0.2061073738537632 -0.2061073738537632 -0.2061073738537632 
-0.2061073738537632 -0.2472609476841366 -0.2472609476841366 -0.2472609476841366 -0.2472609476841366 -0.2857054788290028 -0.2857054788290028 -0.2857054788290028 -0.2857054788290028 
-0.321019760960103 -0.321019760960103 -0.321019760960103 -0.321019760960103 -0.3528168834124208 -0.3528168834124208 -0.3528168834124208 -0.3528168834124208 -0.3807484702583926 
-0.3807484702583926 -0.3807484702583926 -0.3807484702583926 -0.4045084971874736 -0.4045084971874736 -0.4045084971874736 -0.4045084971874736 -0.4238366443725238 -0.4238366443725238 
-0.4238366443725238 -0.4238366443725238 -0.4385211485883087 -0.4385211485883087 -0.4385211485883087 -0.4385211485883087 -0.4484011233337102 -0.4484011233337102 -0.4484011233337102 
-0.4484011233337102 -0.4533683215379001 -0.4533683215379001 -0.4533683215379001 -0.4533683215379001 -0.4533683215379001 -0.4533683215379001 -0.4533683215379001 -0.4533683215379001 
-0.4484011233337103 -0.4484011233337103 -0.4484011233337103 -0.4484011233337103 -0.4385211485883088 -0.4385211485883088 -0.4385211485883088 -0.4385211485883088 -0.4238366443725239 
-0.4238366443725239 -0.4238366443725239 -0.4238366443725239 -0.4045084971874738 -0.4045084971874738 -0.4045084971874738 -0.4045084971874738 -0.3807484702583927 -0.3807484702583927 
-0.3807484702583927 -0.3807484702583927 -0.352816883412421 -0.352816883412421 -0.352816883412421 -0.352816883412421 -0.3210197609601031 -0.3210197609601031 -0.3210197609601031 
-0.3210197609601031 -0.2857054788290025 -0.2857054788290025 -0.2857054788290025 -0.2857054788290025 -0.2472609476841366 -0.2472609476841366 -0.2472609476841366 -0.2472609476841366 
-0.2061073738537635 -0.2061073738537635 -0.2061073738537635 -0.2061073738537635 -0.1626956445047082 -0.1626956445047082 -0.1626956445047082 -0.1626956445047082 -0.1175013876282061 
-0.1175013876282061 -0.1175013876282061 -0.1175013876282061 -0.07101976096010316 -0.07101976096010316 -0.07101976096010316 -0.07101976096010316 -0.02376002692908096 -0.02376002692908096 
-0.02376002692908096 -0.02376002692908096 0.02850420470474562 0.02850420470474562 0.02850420470474562 0.02850420470474562 0.08520031608260331 0.08520031608260331 0.08520031608260331 
0.08520031608260331 0.1409629549681477 0.1409629549681477 0.1409629549681477 0.1409629549681477 0.1951811742206662 0.1951811742206662 0.1951811742206662 0.1951811742206662 
0.2472609476841366 0.2472609476841366 0.2472609476841366 0.2472609476841366 0.2966316784620998 0.2966316784620998 0.2966316784620998 0.2966316784620998 0.342752450496663 
0.342752450496663 0.342752450496663 0.342752450496663 0.3851179549580232 0.3851179549580232 0.3851179549580232 0.3851179549580232 0.42326402651375 0.42326402651375 
0.42326402651375 0.42326402651375 0.4567727288213004 0.4567727288213004 0.4567727288213004 0.4567727288213004 0.485276933526046 0.485276933526046 0.485276933526046 
0.485276933526046 0.5084643425963534 0.5084643425963534 0.5084643425963534 0.5084643425963534 0.5260809099261707 0.5260809099261707 0.5260809099261707 0.5260809099261707 
0.5379336247173292 0.5379336247173292 0.5379336247173292 0.5379336247173292 0.5438926261462366 0.5438926261462366 0.5438926261462366 0.5438926261462366 0.5438926261462366 
0.5438926261462366 0.5438926261462366 0.5438926261462366 0.5379336247173292 0.5379336247173292 0.5379336247173292 0.5379336247173292 0.5260809099261708 0.5260809099261708 
0.5260809099261708 0.5260809099261708 0.5084643425963533 0.5084643425963533 0.5084643425963533 0.5084643425963533 0.4852769335260462 0.4852769335260462 0.4852769335260462 
0.4852769335260462 0.4567727288213004 0.4567727288213004 0.4567727288213004 0.4567727288213004 0.4232640265137501 0.4232640265137501 0.4232640265137501 0.4232640265137501 
0.3851179549580233 0.3851179549580233 0.3851179549580233 0.3851179549580233 0.3427524504966629 0.3427524504966629 0.3427524504966629 0.3427524504966629 0.2966316784621 
0.2966316784621 0.2966316784621 0.2966316784621 0.2472609476841366 0.2472609476841366 0.2472609476841366 0.2472609476841366 0.1951811742206665 0.1951811742206665 
0.1951811742206665 0.1951811742206665 0.1409629549681478 0.1409629549681478 0.1409629549681478 0.1409629549681478 0.08520031608260337 0.08520031608260337 0.08520031608260337 
0.08520031608260337 0.02850420470474583 0.02850420470474583 0.02850420470474583 0.02850420470474583 -0.02850420470474546 -0.02850420470474546 -0.02850420470474546 -0.02850420470474546 
-0.08520031608260301 -0.08520031608260301 -0.08520031608260301 -0.08520031608260301 -0.1409629549681474 -0.1409629549681474 -0.1409629549681474 -0.1409629549681474 -0.1951811742206663 
-0.1951811742206663 -0.1951811742206663 -0.1951811742206663 -0.2472609476841364 -0.2472609476841364 -0.2472609476841364 -0.2472609476841364 -0.2966316784621 -0.2966316784621 
-0.2966316784621 -0.2966316784621 -0.3427524504966634 -0.3427524504966634 -0.3427524504966634 -0.3427524504966634 -0.3851179549580231 -0.3851179549580231 -0.3851179549580231 
-0.3851179549580231 -0.4232640265137499 -0.4232640265137499 -0.4232640265137499 -0.4232640265137499 -0.4567727288213005 -0.4567727288213005 -0.4567727288213005 -0.4567727288213005 
-0.485276933526046 -0.485276933526046 -0.485276933526046 -0.485276933526046 -0.5084643425963533 -0.5084643425963533 -0.5084643425963533 -0.5084643425963533 -0.5260809099261707 
-0.5260809099261707 -0.5260809099261707 -0.5260809099261707 -0.5379336247173292 -0.5379336247173292 -0.5379336247173292 -0.5379336247173292 -0.5438926261462366 -0.5438926261462366 
-0.5438926261462366 -0.5438926261462366 -0.5438926261462366 -0.5438926261462366 -0.5438926261462366 -0.5438926261462366 -0.5379336247173293 -0.5379336247173293 -0.5379336247173293 
-0.5379336247173293 -0.5260809099261707 -0.5260809099261707 -0.5260809099261707 -0.5260809099261707 -0.5084643425963534 -0.5084643425963534 -0.5084643425963534 -0.5084643425963534 
-0.4852769335260461 -0.4852769335260461 -0.4852769335260461 -0.4852769335260461 -0.4567727288213006 -0.4567727288213006 -0.4567727288213006 -0.4567727288213006 -0.4232640265137503 
-0.4232640265137503 -0.4232640265137503 -0.4232640265137503 -0.3851179549580233 -0.3851179549580233 -0.3851179549580233 -0.3851179549580233 -0.3427524504966628 -0.3427524504966628 
-0.3427524504966628 -0.3427524504966628 -0.2966316784620998 -0.2966316784620998 -0.2966316784620998 -0.2966316784620998 -0.2472609476841368 -0.2472609476841368 -0.2472609476841368 
-0.2472609476841368 -0.195181174220667 -0.195181174220667 -0.195181174220667 -0.195181174220667 -0.1409629549681481 -0.1409629549681481 -0.1409629549681481 -0.1409629549681481 
-0.08520031608260345 -0.08520031608260345 -0.08520031608260345 -0.08520031608260345 -0.02850420470474542 -0.02850420470474542 -0.02850420470474542 -0.02850420470474542 0.0329360844487766 
0.0329360844487766 0.0329360844487766 0.0329360844487766 0.09844739871279021 0.09844739871279021 0.09844739871279021 0.09844739871279021 0.1628801026750639 0.1628801026750639 
0.1628801026750639 0.1628801026750639 0.2255282581475768 0.2255282581475768 0.2255282581475768 0.2255282581475768 0.2857054788290027 0.2857054788290027 0.2857054788290027 
0.2857054788290027 0.342752450496663 0.342752450496663 0.342752450496663 0.342752450496663 0.3960441545911204 0.3960441545911204 0.3960441545911204 0.3960441545911204 
0.44499671605031 0.44499671605031 0.44499671605031 0.44499671605031 0.4890738003669028 0.4890738003669028 0.4890738003669028 0.4890738003669028 0.5277924897814036 
0.5277924897814036 0.5277924897814036 0.5277924897814036 0.5607285742301801 0.5607285742301801 0.5607285742301801 0.5607285742301801 0.587521199079693 0.587521199079693 
0.587521199079693 0.587521199079693 0.6078768187253739 0.6078768187253739 0.6078768187253739 0.6078768187253739 0.6215724127386972 0.6215724127386972 0.6215724127386972 