Title = Result/Linear_Advection_2D/FVM/MLP_u1_Least_Square/Sine_Wave_2D/Quad60/
FileType = Solution
Variables = q
Zone T = Result/Linear_Advection_2D/FVM/MLP_u1_Least_Square/Sine_Wave_2D/Quad60/
ZoneType = FETriangle
Nodes = 14400
Elements = 7200
DataPacking = Block
StrandID = 5
SolutionTime = 0.4
0.599126575040557 0.599126575040557 0.599126575040557 0.599126575040557 0.639822850944761 0.639822850944761 0.639822850944761 0.639822850944761 0.6957081709431501 0.6957081709431501 
0.6957081709431501 0.6957081709431501 0.7493038807721808 0.7493038807721808 0.7493038807721808 0.7493038807721808 0.7959651562351739 0.7959651562351739 0.7959651562351739 
0.7959651562351739 0.8342019687724284 0.8342019687724284 0.8342019687724284 0.8342019687724284 0.8633687753616159 0.8633687753616159 0.8633687753616159 0.8633687753616159 
0.8830886567766677 0.8830886567766677 0.8830886567766677 0.8830886567766677 0.8931117579629329 0.8931117579629329 0.8931117579629329 0.8931117579629329 0.8933333299154047 
0.8933333299154047 0.8933333299154047 0.8933333299154047 0.8837817061289789 0.8837817061289789 0.8837817061289789 0.8837817061289789 0.8645418195540586 0.8645418195540586 
0.8645418195540586 0.8645418195540586 0.8358314918239396 0.8358314918239396 0.8358314918239396 0.8358314918239396 0.7979684580201125 0.7979684580201125 0.7979684580201125 
0.7979684580201125 0.7513529206140539 0.7513529206140539 0.7513529206140539 0.7513529206140539 0.6964707340634719 0.6964707340634719 0.6964707340634719 0.6964707340634719 
0.6339264982383501 0.6339264982383501 0.6339264982383501 0.6339264982383501 0.5645277711214274 0.5645277711214274 0.5645277711214274 0.5645277711214274 0.4893608235904037 
0.4893608235904037 0.4893608235904037 0.4893608235904037 0.409747258204549 0.409747258204549 0.409747258204549 0.409747258204549 0.3269985413734791 0.3269985413734791 
0.3269985413734791 0.3269985413734791 0.2420277233005824 0.2420277233005824 0.2420277233005824 0.2420277233005824 0.1550543344586972 0.1550543344586972 0.1550543344586972 
0.1550543344586972 0.06567761288089928 0.06567761288089928 0.06567761288089928 0.06567761288089928 -0.026598939713405 -0.026598939713405 -0.026598939713405 -0.026598939713405 
-0.1216321264245863 -0.1216321264245863 -0.1216321264245863 -0.1216321264245863 -0.2181384587806869 -0.2181384587806869 -0.2181384587806869 -0.2181384587806869 -0.3137712495029569 
-0.3137712495029569 -0.3137712495029569 -0.3137712495029569 -0.405757003033024 -0.405757003033024 -0.405757003033024 -0.405757003033024 -0.4917168355912913 -0.4917168355912913 
-0.4917168355912913 -0.4917168355912913 -0.5702084552597531 -0.5702084552597531 -0.5702084552597531 -0.5702084552597531 -0.6407453637800533 -0.6407453637800533 -0.6407453637800533 
-0.6407453637800533 -0.7033941777224088 -0.7033941777224088 -0.7033941777224088 -0.7033941777224088 -0.7582681462490803 -0.7582681462490803 -0.7582681462490803 -0.7582681462490803 
-0.8052089873419399 -0.8052089873419399 -0.8052089873419399 -0.8052089873419399 -0.8437593055806089 -0.8437593055806089 -0.8437593055806089 -0.8437593055806089 -0.8733367817268709 
-0.8733367817268709 -0.8733367817268709 -0.8733367817268709 -0.8934157678804309 -0.8934157678804309 -0.8934157678804309 -0.8934157678804309 -0.9036363897064459 -0.9036363897064459 
-0.9036363897064459 -0.9036363897064459 -0.9038709347856386 -0.9038709347856386 -0.9038709347856386 -0.9038709347856386 -0.8941766438648072 -0.8941766438648072 -0.8941766438648072 
-0.8941766438648072 -0.8746715791467566 -0.8746715791467566 -0.8746715791467566 -0.8746715791467566 -0.845590353409986 -0.845590353409986 -0.845590353409986 -0.845590353409986 
-0.8072562366293106 -0.8072562366293106 -0.8072562366293106 -0.8072562366293106 -0.7600830567602226 -0.7600830567602226 -0.7600830567602226 -0.7600830567602226 -0.7045837596122811 
-0.7045837596122811 -0.7045837596122811 -0.7045837596122811 -0.6413640405075849 -0.6413640405075849 -0.6413640405075849 -0.6413640405075849 -0.5711164048770767 -0.5711164048770767 
-0.5711164048770767 -0.5711164048770767 -0.4946112847777668 -0.4946112847777668 -0.4946112847777668 -0.4946112847777668 -0.4126872353560609 -0.4126872353560609 -0.4126872353560609 
-0.4126872353560609 -0.3262418869543251 -0.3262418869543251 -0.3262418869543251 -0.3262418869543251 -0.2362220167150612 -0.2362220167150612 -0.2362220167150612 -0.2362220167150612 
-0.1436150071346977 -0.1436150071346977 -0.1436150071346977 -0.1436150071346977 -0.04942938784963714 -0.04942938784963714 -0.04942938784963714 -0.04942938784963714 0.04527243369277224 
0.04527243369277224 0.04527243369277224 0.04527243369277224 0.1396012127443677 0.1396012127443677 0.1396012127443677 0.1396012127443677 0.2318160925868106 0.2318160925868106 
0.2318160925868106 0.2318160925868106 0.3242233596876166 0.3242233596876166 0.3242233596876166 0.3242233596876166 0.400486480291058 0.400486480291058 0.400486480291058 
0.400486480291058 0.5293872486560247 0.5293872486560247 0.5293872486560247 0.5293872486560247 0.5800947272342738 0.5800947272342738 0.5800947272342738 0.5800947272342738 
0.6199204228087145 0.6199204228087145 0.6199204228087145 0.6199204228087145 0.6739928279186534 0.6739928279186534 0.6739928279186534 0.6739928279186534 0.7257941176139033 
0.7257941176139033 0.7257941176139033 0.7257941176139033 0.7709058090160937 0.7709058090160937 0.7709058090160937 0.7709058090160937 0.8078957870284453 0.8078957870284453 
0.8078957870284453 0.8078957870284453 0.8361256331313129 0.8361256331313129 0.8361256331313129 0.8361256331313129 0.8552192172311752 0.8552192172311752 0.8552192172311752 
0.8552192172311752 0.8649363436257895 0.8649363436257895 0.8649363436257895 0.8649363436257895 0.8651671700972782 0.8651671700972782 0.8651671700972782 0.8651671700972782 
0.8559162311677554 0.8559162311677554 0.8559162311677554 0.8559162311677554 0.8372857868004278 0.8372857868004278 0.8372857868004278 0.8372857868004278 0.8094833841201674 
0.8094833841201674 0.8094833841201674 0.8094833841201674 0.7728142251862353 0.7728142251862353 0.7728142251862353 0.7728142251862353 0.7276685083098537 0.7276685083098537 
0.7276685083098537 0.7276685083098537 0.6745170085456751 0.6745170085456751 0.6745170085456751 0.6745170085456751 0.6139462720924331 0.6139462720924331 0.6139462720924331 
0.6139462720924331 0.5467389525329311 0.5467389525329311 0.5467389525329311 0.5467389525329311 0.4739458251348348 0.4739458251348348 0.4739458251348348 0.4739458251348348 
0.3968442702426216 0.3968442702426216 0.3968442702426216 0.3968442702426216 0.3167016724889961 0.3167016724889961 0.3167016724889961 0.3167016724889961 0.2344015382835001 
0.2344015382835001 0.2344015382835001 0.2344015382835001 0.1501590280526153 0.1501590280526153 0.1501590280526153 0.1501590280526153 0.06359103718926551 0.06359103718926551 
0.06359103718926551 0.06359103718926551 -0.025778642976917 -0.025778642976917 -0.025778642976917 -0.025778642976917 -0.117810040794353 -0.117810040794353 -0.117810040794353 
-0.117810040794353 -0.21126306884668 -0.21126306884668 -0.21126306884668 -0.21126306884668 -0.3038703370670327 -0.3038703370670327 -0.3038703370670327 -0.3038703370670327 
-0.3929502964863661 -0.3929502964863661 -0.3929502964863661 -0.3929502964863661 -0.4762004755023449 -0.4762004755023449 -0.4762004755023449 -0.4762004755023449 -0.5522222886685277 
-0.5522222886685277 -0.5522222886685277 -0.5522222886685277 -0.6205413542626576 -0.6205413542626576 -0.6205413542626576 -0.6205413542626576 -0.6812195652151646 -0.6812195652151646 
-0.6812195652151646 -0.6812195652151646 -0.7343656204469202 -0.7343656204469202 -0.7343656204469202 -0.7343656204469202 -0.7798269135449418 -0.7798269135449418 -0.7798269135449418 
-0.7798269135449418 -0.8171620698427497 -0.8171620698427497 -0.8171620698427497 -0.8171620698427497 -0.8458042408409742 -0.8458042408409742 -0.8458042408409742 -0.8458042408409742 
-0.8652450976246118 -0.8652450976246118 -0.8652450976246118 -0.8652450976246118 -0.8751470222998168 -0.8751470222998168 -0.8751470222998168 -0.8751470222998168 -0.8753833073616614 
-0.8753833073616614 -0.8753833073616614 -0.8753833073616614 -0.8659885247973589 -0.8659885247973589 -0.8659885247973589 -0.8659885247973589 -0.8470980723115551 -0.8470980723115551 
-0.8470980723115551 -0.8470980723115551 -0.8189352526875437 -0.8189352526875437 -0.8189352526875437 -0.8189352526875437 -0.7818099362757845 -0.7818099362757845 -0.7818099362757845 
-0.7818099362757845 -0.7361246356173569 -0.7361246356173569 -0.7361246356173569 -0.7361246356173569 -0.6823753529148702 -0.6823753529148702 -0.6823753529148702 -0.6823753529148702 
-0.6211487667310878 -0.6211487667310878 -0.6211487667310878 -0.6211487667310878 -0.5531158400276508 -0.5531158400276508 -0.5531158400276508 -0.5531158400276508 -0.4790226075245841 
-0.4790226075245841 -0.4790226075245841 -0.4790226075245841 -0.3996812171206371 -0.3996812171206371 -0.3996812171206371 -0.3996812171206371 -0.3159610028078076 -0.3159610028078076 
-0.3159610028078076 -0.3159610028078076 -0.2287789211289843 -0.2287789211289843 -0.2287789211289843 -0.2287789211289843 -0.1390911801778363 -0.1390911801778363 -0.1390911801778363 
-0.1390911801778363 -0.04787479405164927 -0.04787479405164927 -0.04787479405164927 -0.04787479405164927 0.0438426972435447 0.0438426972435447 0.0438426972435447 0.0438426972435447 
0.1351935064806771 0.1351935064806771 0.1351935064806771 0.1351935064806771 0.2245223502669412 0.2245223502669412 0.2245223502669412 0.2245223502669412 0.3139238114442339 
0.3139238114442339 0.3139238114442339 0.3139238114442339 0.3881682620884884 0.3881682620884884 0.3881682620884884 0.3881682620884884 0.512058035242005 0.512058035242005 
0.512058035242005 0.512058035242005 0.5477644805874473 0.5477644805874473 0.5477644805874473 0.5477644805874473 0.5854090006942968 0.5854090006942968 0.5854090006942968 
0.5854090006942968 0.6366146223975997 0.6366146223975997 0.6366146223975997 0.6366146223975997 0.6855883570928458 0.6855883570928458 0.6855883570928458 0.6855883570928458 
0.7281857751345805 0.7281857751345805 0.7281857751345805 0.7281857751345805 0.7630893745143046 0.7630893745143046 0.7630893745143046 0.7630893745143046 0.7897175171156074 
0.7897175171156074 0.7897175171156074 0.7897175171156074 0.807726244713821 0.807726244713821 0.807726244713821 0.807726244713821 0.8168954973923788 0.8168954973923788 
0.8168954973923788 0.8168954973923788 0.8171158466575644 0.8171158466575644 0.8171158466575644 0.8171158466575644 0.8083836055494952 0.8083836055494952 0.8083836055494952 
0.8083836055494952 0.7907935221244898 0.7907935221244898 0.7907935221244898 0.7907935221244898 0.7645396805717662 0.7645396805717662 0.7645396805717662 0.7645396805717662 
0.7299100528530192 0.7299100528530192 0.7299100528530192 0.7299100528530192 0.6872728114224974 0.6872728114224974 0.6872728114224974 0.6872728114224974 0.6370734422679714 
0.6370734422679714 0.6370734422679714 0.6370734422679714 0.5798672237391285 0.5798672237391285 0.5798672237391285 0.5798672237391285 0.51639335066776 0.51639335066776 
0.51639335066776 0.51639335066776 0.4476430554349185 0.4476430554349185 0.4476430554349185 0.4476430554349185 0.3748210771494113 0.3748210771494113 0.3748210771494113 
0.3748210771494113 0.2991236943517043 0.2991236943517043 0.2991236943517043 0.2991236943517043 0.2213867984066072 0.2213867984066072 0.2213867984066072 0.2213867984066072 
0.1418168473626451 0.1418168473626451 0.1418168473626451 0.1418168473626451 0.06005504759570963 0.06005504759570963 0.06005504759570963 0.06005504759570963 -0.02434779867496349 
-0.02434779867496349 -0.02434779867496349 -0.02434779867496349 -0.1112620460310671 -0.1112620460310671 -0.1112620460310671 -0.1112620460310671 -0.1995205322943515 -0.1995205322943515 
-0.1995205322943515 -0.1995205322943515 -0.286984678981323 -0.286984678981323 -0.286984678981323 -0.286984678981323 -0.3711218926352204 -0.3711218926352204 -0.3711218926352204 
-0.3711218926352204 -0.4497551652112988 -0.4497551652112988 -0.4497551652112988 -0.4497551652112988 -0.5215606628484812 -0.5215606628484812 -0.5215606628484812 -0.5215606628484812 
-0.5860887439926215 -0.5860887439926215 -0.5860887439926215 -0.5860887439926215 -0.643398107728939 -0.643398107728939 -0.643398107728939 -0.643398107728939 -0.6935927475692312 
-0.6935927475692312 -0.6935927475692312 -0.6935927475692312 -0.7365298268685493 -0.7365298268685493 -0.7365298268685493 -0.7365298268685493 -0.7717923469570109 -0.7717923469570109 
-0.7717923469570109 -0.7717923469570109 -0.7988425535422605 -0.7988425535422605 -0.7988425535422605 -0.7988425535422605 -0.8172011380222389 -0.8172011380222389 -0.8172011380222389 
-0.8172011380222389 -0.8265547529843116 -0.8265547529843116 -0.8265547529843116 -0.8265547529843116 -0.8267812093379094 -0.8267812093379094 -0.8267812093379094 -0.8267812093379094 
-0.817909445457803 -0.817909445457803 -0.817909445457803 -0.817909445457803 -0.8000690122343477 -0.8000690122343477 -0.8000690122343477 -0.8000690122343477 -0.7734709703920607 
-0.7734709703920607 -0.7734709703920607 -0.7734709703920607 -0.73840833628139 -0.73840833628139 -0.73840833628139 -0.73840833628139 -0.6952605067779222 -0.6952605067779222 
-0.6952605067779222 -0.6952605067779222 -0.6444958422586394 -0.6444958422586394 -0.6444958422586394 -0.6444958422586394 -0.5866689118051513 -0.5866689118051513 -0.5866689118051513 
-0.5866689118051513 -0.5224134529575248 -0.5224134529575248 -0.5224134529575248 -0.5224134529575248 -0.4524340805465155 -0.4524340805465155 -0.4524340805465155 -0.4524340805465155 
-0.377497839268869 -0.377497839268869 -0.377497839268869 -0.377497839268869 -0.2984257937631759 -0.2984257937631759 -0.2984257937631759 -0.2984257937631759 -0.2160840079995582 
-0.2160840079995582 -0.2160840079995582 -0.2160840079995582 -0.1313756103885973 -0.1313756103885973 -0.1313756103885973 -0.1313756103885973 -0.04522337881419146 -0.04522337881419146 
-0.04522337881419146 -0.04522337881419146 0.04140222459969766 0.04140222459969766 0.04140222459969766 0.04140222459969766 0.1276815455634077 0.1276815455634077 0.1276815455634077 
0.1276815455634077 0.2120509524340149 0.2120509524340149 0.2120509524340149 0.2120509524340149 0.2964934492348261 0.2964934492348261 0.2964934492348261 0.2964934492348261 
0.3665885475210563 0.3665885475210563 0.3665885475210563 0.3665885475210563 0.4836349591510739 0.4836349591510739 0.4836349591510739 0.4836349591510739 0.5080580129112278 
0.5080580129112278 0.5080580129112278 0.5080580129112278 0.5429140543609692 0.5429140543609692 0.5429140543609692 0.5429140543609692 0.5904203423757268 0.5904203423757268 
0.5904203423757268 0.5904203423757268 0.6358968899665001 0.6358968899665001 0.6358968899665001 0.6358968899665001 0.6754467500211062 0.6754467500211062 0.6754467500211062 
0.6754467500211062 0.7078345428605146 0.7078345428605146 0.7078345428605146 0.7078345428605146 0.7325250338416278 0.7325250338416278 0.7325250338416278 0.7325250338416278 
0.7492104694820294 0.7492104694820294 0.7492104694820294 0.7492104694820294 0.7576991361491834 0.7576991361491834 0.7576991361491834 0.7576991361491834 0.7578948255381204 
0.7578948255381204 0.7578948255381204 0.7578948255381204 0.7497928294978424 0.7497928294978424 0.7497928294978424 0.7497928294978424 0.7334795449293692 0.7334795449293692 
0.7334795449293692 0.7334795449293692 0.7091330044383981 0.7091330044383981 0.7091330044383981 0.7091330044383981 0.6770175538770793 0.6770175538770793 0.6770175538770793 
0.6770175538770793 0.637473502976478 0.637473502976478 0.637473502976478 0.637473502976478 0.5909143001098951 0.5909143001098951 0.5909143001098951 0.5909143001098951 
0.5378554480194871 0.5378554480194871 0.5378554480194871 0.5378554480194871 0.478982506655382 0.478982506655382 0.478982506655382 0.478982506655382 0.4152139045645151 
0.4152139045645151 0.4152139045645151 0.4152139045645151 0.3476660014114073 0.3476660014114073 0.3476660014114073 0.3476660014114073 0.2774486710717193 0.2774486710717193 
0.2774486710717193 0.2774486710717193 0.2053396202176725 0.2053396202176725 0.2053396202176725 0.2053396202176725 0.1315338339200641 0.1315338339200641 0.1315338339200641 
0.1315338339200641 0.05570069659078403 0.05570069659078403 0.05570069659078403 0.05570069659078403 -0.02257754532892282 -0.02257754532892282 -0.02257754532892282 -0.02257754532892282 
-0.1031847649260251 -0.1031847649260251 -0.1031847649260251 -0.1031847649260251 -0.1850429467737231 -0.1850429467737231 -0.1850429467737231 -0.1850429467737231 -0.266170516472689 
-0.266170516472689 -0.266170516472689 -0.266170516472689 -0.3442167741892422 -0.3442167741892422 -0.3442167741892422 -0.3442167741892422 -0.4171586180392327 -0.4171586180392327 
-0.4171586180392327 -0.4171586180392327 -0.4837647760263058 -0.4837647760263058 -0.4837647760263058 -0.4837647760263058 -0.5436171941595354 -0.5436171941595354 -0.5436171941595354 
-0.5436171941595354 -0.5967716663788563 -0.5967716663788563 -0.5967716663788563 -0.5967716663788563 -0.643326867587096 -0.643326867587096 -0.643326867587096 -0.643326867587096 
-0.6831518107481666 -0.6831518107481666 -0.6831518107481666 -0.6831518107481666 -0.7158594441500312 -0.7158594441500312 -0.7158594441500312 -0.7158594441500312 -0.7409490875087545 
-0.7409490875087545 -0.7409490875087545 -0.7409490875087545 -0.757975749953099 -0.757975749953099 -0.757975749953099 -0.757975749953099 -0.7666516524708338 -0.7666516524708338 
-0.7666516524708338 -0.7666516524708338 -0.766863793224744 -0.766863793224744 -0.766863793224744 -0.766863793224744 -0.7586367981394337 -0.7586367981394337 -0.7586367981394337 
-0.7586367981394337 -0.7420909315755464 -0.7420909315755464 -0.7420909315755464 -0.7420909315755464 -0.7174223626184127 -0.7174223626184127 -0.7174223626184127 -0.7174223626184127 
-0.6849021326152195 -0.6849021326152195 -0.6849021326152195 -0.6849021326152195 -0.6448820059818376 -0.6448820059818376 -0.6448820059818376 -0.6448820059818376 -0.5977967090952511 
-0.5977967090952511 -0.5977967090952511 -0.5977967090952511 -0.5441607859544777 -0.5441607859544777 -0.5441607859544777 -0.5441607859544777 -0.4845621537045902 -0.4845621537045902 
-0.4845621537045902 -0.4845621537045902 -0.4196543626109909 -0.4196543626109909 -0.4196543626109909 -0.4196543626109909 -0.3501488307333423 -0.3501488307333423 -0.3501488307333423 
-0.3501488307333423 -0.2768071148144035 -0.2768071148144035 -0.2768071148144035 -0.2768071148144035 -0.2004325285854805 -0.2004325285854805 -0.2004325285854805 -0.2004325285854805 
-0.1218627613834711 -0.1218627613834711 -0.1218627613834711 -0.1218627613834711 -0.04195373268314781 -0.04195373268314781 -0.04195373268314781 -0.04195373268314781 0.0383944934895818 
0.0383944934895818 0.0383944934895818 0.0383944934895818 0.1184214812009046 0.1184214812009046 0.1184214812009046 0.1184214812009046 0.1966772719139086 0.1966772719139086 
0.1966772719139086 0.1966772719139086 0.2750027408353763 0.2750027408353763 0.2750027408353763 0.2750027408353763 0.3399943691118111 0.3399943691118111 0.3399943691118111 
0.3399943691118111 0.4486189865351403 0.4486189865351403 0.4486189865351403 0.4486189865351403 0.4624891620394491 0.4624891620394491 0.4624891620394491 0.4624891620394491 
0.4941953596436733 0.4941953596436733 0.4941953596436733 0.4941953596436733 0.5374125597790327 0.5374125597790327 0.5374125597790327 0.5374125597790327 0.5788105441288852 
0.5788105441288852 0.5788105441288852 0.5788105441288852 0.6148345531788251 0.6148345531788251 0.6148345531788251 0.6148345531788251 0.6443413836670846 0.6443413836670846 
0.6443413836670846 0.6443413836670846 0.6668313977251645 0.6668313977251645 0.6668313977251645 0.6668313977251645 0.6820218062630629 0.6820218062630629 0.6820218062630629 
0.6820218062630629 0.6897427380619672 0.6897427380619672 0.6897427380619672 0.6897427380619672 0.6899123051993757 0.6899123051993757 0.6899123051993757 0.6899123051993757 
0.6825304704819724 0.6825304704819724 0.6825304704819724 0.6825304704819724 0.6676780275928068 0.6676780275928068 0.6676780275928068 0.6676780275928068 0.6455166462322202 
0.6455166462322202 0.6455166462322202 0.6455166462322202 0.6162855793386495 0.6162855793386495 0.6162855793386495 0.6162855793386495 0.5802931263695021 0.5802931263695021 
0.5802931263695021 0.5802931263695021 0.5379146766577574 0.5379146766577574 0.5379146766577574 0.5379146766577574 0.4896189778123623 0.4896189778123623 0.4896189778123623 
0.4896189778123623 0.4360292631698356 0.4360292631698356 0.4360292631698356 0.4360292631698356 0.3779803083394945 0.3779803083394945 0.3779803083394945 0.3779803083394945 
0.3164875218567072 0.3164875218567072 0.3164875218567072 0.3164875218567072 0.2525622026348432 0.2525622026348432 0.2525622026348432 0.2525622026348432 0.1869155090440846 
0.1869155090440846 0.1869155090440846 0.1869155090440846 0.1197289013437437 0.1197289013437437 0.1197289013437437 0.1197289013437437 0.05070339814533326 0.05070339814533326 
0.05070339814533326 0.05070339814533326 -0.02054318269707932 -0.02054318269707932 -0.02054318269707932 -0.02054318269707932 -0.09391014885425698 -0.09391014885425698 -0.09391014885425698 
-0.09391014885425698 -0.1684211665016156 -0.1684211665016156 -0.1684211665016156 -0.1684211665016156 -0.2422741264971829 -0.2422741264971829 -0.2422741264971829 -0.2422741264971829 
-0.3133267584069029 -0.3133267584069029 -0.3133267584069029 -0.3133267584069029 -0.3797328385221856 -0.3797328385221856 -0.3797328385221856 -0.3797328385221856 -0.4403679186491288 
-0.4403679186491288 -0.4403679186491288 -0.4403679186491288 -0.4948507509994889 -0.4948507509994889 -0.4948507509994889 -0.4948507509994889 -0.543234039368629 -0.543234039368629 
-0.543234039368629 -0.543234039368629 -0.5856102780147916 -0.5856102780147916 -0.5856102780147916 -0.5856102780147916 -0.6218618745877501 -0.6218618745877501 -0.6218618745877501 
-0.6218618745877501 -0.6516362842853012 -0.6516362842853012 -0.6516362842853012 -0.6516362842853012 -0.6744761385013001 -0.6744761385013001 -0.6744761385013001 -0.6744761385013001 
-0.6899756369833955 -0.6899756369833955 -0.6899756369833955 -0.6899756369833955 -0.6978737683866563 -0.6978737683866563 -0.6978737683866563 -0.6978737683866563 -0.6980679334233 
-0.6980679334233 -0.6980679334233 -0.6980679334233 -0.6905803938708428 -0.6905803938708428 -0.6905803938708428 -0.6905803938708428 -0.6755205803590232 -0.6755205803590232 
-0.6755205803590232 -0.6755205803590232 -0.6530666072649836 -0.6530666072649836 -0.6530666072649836 -0.6530666072649836 -0.6234650334745302 -0.6234650334745302 -0.6234650334745302 
-0.6234650334745302 -0.5870360142341936 -0.5870360142341936 -0.5870360142341936 -0.5870360142341936 -0.5441753308233472 -0.5441753308233472 -0.5441753308233472 -0.5441753308233472 
-0.4953515624244915 -0.4953515624244915 -0.4953515624244915 -0.4953515624244915 -0.4410999614854426 -0.4410999614854426 -0.4410999614854426 -0.4410999614854426 -0.3820154295835388 
-0.3820154295835388 -0.3820154295835388 -0.3820154295835388 -0.3187455327102394 -0.3187455327102394 -0.3187455327102394 -0.3187455327102394 -0.251983499741015 -0.251983499741015 
-0.251983499741015 -0.251983499741015 -0.1824605947093347 -0.1824605947093347 -0.1824605947093347 -0.1824605947093347 -0.1109393701232811 -0.1109393701232811 -0.1109393701232811 
-0.1109393701232811 -0.03819894753479802 -0.03819894753479802 -0.03819894753479802 -0.03819894753479802 0.03494136130632694 0.03494136130632694 0.03494136130632694 0.03494136130632694 
0.107789527883841 0.107789527883841 0.107789527883841 0.107789527883841 0.1790245495192766 0.1790245495192766 0.1790245495192766 0.1790245495192766 0.2503283329277418 
0.2503283329277418 0.2503283329277418 0.2503283329277418 0.3094729383223848 0.3094729383223848 0.3094729383223848 0.3094729383223848 0.4083850869694823 0.4083850869694823 
0.4083850869694823 0.4083850869694823 0.4117582239162701 0.4117582239162701 0.4117582239162701 0.4117582239162701 0.4399853953170714 0.4399853953170714 0.4399853953170714 
0.4399853953170714 0.4784474298039548 0.4784474298039548 0.4784474298039548 0.4784474298039548 0.515290297660034 0.515290297660034 0.515290297660034 0.515290297660034 
0.5473608787079157 0.5473608787079157 0.5473608787079157 0.5473608787079157 0.5736410156422302 0.5736410156422302 0.5736410156422302 0.5736410156422302 0.5936783938375965 
0.5936783938375965 0.5936783938375965 0.5936783938375965 0.6072138594532215 0.6072138594532215 0.6072138594532215 0.6072138594532215 0.6140927824181754 0.6140927824181754 
0.6140927824181754 0.6140927824181754 0.6142427908172736 0.6142427908172736 0.6142427908172736 0.6142427908172736 0.6076666062715148 0.6076666062715148 0.6076666062715148 
0.6076666062715148 0.5944392592257625 0.5944392592257625 0.5944392592257625 0.5944392592257625 0.574706944982718 0.574706944982718 0.574706944982718 0.574706944982718 
0.548683389501931 0.548683389501931 0.548683389501931 0.548683389501931 0.5166426746313623 0.5166426746313623 0.5166426746313623 0.5166426746313623 0.4789181816484492 
0.4789181816484492 0.4789181816484492 0.4789181816484492 0.4359259435013748 0.4359259435013748 0.4359259435013748 0.4359259435013748 0.3882189670856344 0.3882189670856344 
0.3882189670856344 0.3882189670856344 0.3365384119900006 0.3365384119900006 0.3365384119900006 0.3365384119900006 0.2817872801046236 0.2817872801046236 0.2817872801046236 
0.2817872801046236 0.2248673276372605 0.2248673276372605 0.2248673276372605 0.2248673276372605 0.1664155931976873 0.1664155931976873 0.1664155931976873 0.1664155931976873 
0.106598002421444 0.106598002421444 0.106598002421444 0.106598002421444 0.04515011824827696 0.04515011824827696 0.04515011824827696 0.04515011824827696 -0.01827097656275142 
-0.01827097656275142 -0.01827097656275142 -0.01827097656275142 -0.08358139891706129 -0.08358139891706129 -0.08358139891706129 -0.08358139891706129 -0.1499170523329168 -0.1499170523329168 
-0.1499170523329168 -0.1499170523329168 -0.2156746111275124 -0.2156746111275124 -0.2156746111275124 -0.2156746111275124 -0.2789433358887854 -0.2789433358887854 -0.2789433358887854 
-0.2789433358887854 -0.3380740885477612 -0.3380740885477612 -0.3380740885477612 -0.3380740885477612 -0.392061939888444 -0.392061939888444 -0.392061939888444 -0.392061939888444 
-0.4405671989763445 -0.4405671989763445 -0.4405671989763445 -0.4405671989763445 -0.4836393979427296 -0.4836393979427296 -0.4836393979427296 -0.4836393979427296 -0.5213640866272133 
-0.5213640866272133 -0.5213640866272133 -0.5213640866272133 -0.5536383841210102 -0.5536383841210102 -0.5536383841210102 -0.5536383841210102 -0.5801482108819846 -0.5801482108819846 
-0.5801482108819846 -0.5801482108819846 -0.6004848934370677 -0.6004848934370677 -0.6004848934370677 -0.6004848934370677 -0.6142860053495766 -0.6142860053495766 -0.6142860053495766 
-0.6142860053495766 -0.6213191168961023 -0.6213191168961023 -0.6213191168961023 -0.6213191168961023 -0.6214932493426047 -0.6214932493426047 -0.6214932493426047 -0.6214932493426047 
-0.6148284485712158 -0.6148284485712158 -0.6148284485712158 -0.6148284485712158 -0.6014221344215085 -0.6014221344215085 -0.6014221344215085 -0.6014221344215085 -0.5814328751952017 
-0.5814328751952017 -0.5814328751952017 -0.5814328751952017 -0.5550799906759349 -0.5550799906759349 -0.5550799906759349 -0.5550799906759349 -0.5226483298997098 -0.5226483298997098 
-0.5226483298997098 -0.5226483298997098 -0.4844903110638158 -0.4844903110638158 -0.4844903110638158 -0.4844903110638158 -0.4410231947579757 -0.4410231947579757 -0.4410231947579757 
-0.4410231947579757 -0.3927235613714158 -0.3927235613714158 -0.3927235613714158 -0.3927235613714158 -0.3401210527742516 -0.3401210527742516 -0.3401210527742516 -0.3401210527742516 
-0.2837921820530104 -0.2837921820530104 -0.2837921820530104 -0.2837921820530104 -0.2243541441354406 -0.2243541441354406 -0.2243541441354406 -0.2243541441354406 -0.1624580121253262 
-0.1624580121253262 -0.1624580121253262 -0.1624580121253262 -0.09878269204879983 -0.09878269204879983 -0.09878269204879983 -0.09878269204879983 -0.03402178594841217 -0.03402178594841217 
-0.03402178594841217 -0.03402178594841217 0.03109527957707411 0.03109527957707411 0.03109527957707411 0.03109527957707411 0.09595272409580514 0.09595272409580514 0.09595272409580514 
0.09595272409580514 0.1593729449445997 0.1593729449445997 0.1593729449445997 0.1593729449445997 0.2228596916464077 0.2228596916464077 0.2228596916464077 0.2228596916464077 
0.2755063706079225 0.2755063706079225 0.2755063706079225 0.2755063706079225 0.36358383897687 0.36358383897687 0.36358383897687 0.36358383897687 0.3565454747153806 
0.3565454747153806 0.3565454747153806 0.3565454747153806 0.3809876054628403 0.3809876054628403 0.3809876054628403 0.3809876054628403 0.4142895008930648 0.4142895008930648 
0.4142895008930648 0.4142895008930648 0.4461848796706904 0.4461848796706904 0.4461848796706904 0.4461848796706904 0.473948355533209 0.473948355533209 0.473948355533209 
0.473948355533209 0.4967036085098759 0.4967036085098759 0.4967036085098759 0.4967036085098759 0.5140598952064507 0.5140598952064507 0.5140598952064507 0.5140598952064507 
0.5257897475955415 0.5257897475955415 0.5257897475955415 0.5257897475955415 0.5317550242428157 0.5317550242428157 0.5317550242428157 0.5317550242428157 0.5318900309115346 
0.5318900309115346 0.5318900309115346 0.5318900309115346 0.5261963999909819 0.5261963999909819 0.5261963999909819 0.5261963999909819 0.514740469150258 0.514740469150258 
0.514740469150258 0.514740469150258 0.4976510772175889 0.4976510772175889 0.4976510772175889 0.4976510772175889 0.4751153316465302 0.4751153316465302 0.4751153316465302 
0.4751153316465302 0.4473718932267781 0.4473718932267781 0.4473718932267781 0.4473718932267781 0.4147097272407499 0.4147097272407499 0.4147097272407499 0.4147097272407499 
0.377488131991586 0.377488131991586 0.377488131991586 0.377488131991586 0.3361838109139027 0.3361838109139027 0.3361838109139027 0.3361838109139027 0.2914359640490977 