Title = Result/Linear_Advection_2D/FVM/MLP_u1_Least_Square/Sine_Wave_2D/Quad60/
FileType = Solution
Variables = q
Zone T = Result/Linear_Advection_2D/FVM/MLP_u1_Least_Square/Sine_Wave_2D/Quad60/
ZoneType = FETriangle
Nodes = 14400
Elements = 7200
DataPacking = Block
StrandID = 12
SolutionTime = 1.1
-0.1035162639691226 -0.1035162639691226 -0.1035162639691226 -0.1035162639691226 -0.09256786826169019 -0.09256786826169019 -0.09256786826169019 -0.09256786826169019 -0.07536825178769946 -0.07536825178769946 
-0.07536825178769946 -0.07536825178769946 -0.05608115917265006 -0.05608115917265006 -0.05608115917265006 -0.05608115917265006 -0.03593249786607476 -0.03593249786607476 -0.03593249786607476 
-0.03593249786607476 -0.01498642344967936 -0.01498642344967936 -0.01498642344967936 -0.01498642344967936 0.007019338565700507 0.007019338565700507 0.007019338565700507 0.007019338565700507 
0.02939592364011504 0.02939592364011504 0.02939592364011504 0.02939592364011504 0.05076867691785319 0.05076867691785319 0.05076867691785319 0.05076867691785319 0.07051111568513993 
0.07051111568513993 0.07051111568513993 0.07051111568513993 0.08925021171838568 0.08925021171838568 0.08925021171838568 0.08925021171838568 0.1079594183810049 0.1079594183810049 
0.1079594183810049 0.1079594183810049 0.1265952509955364 0.1265952509955364 0.1265952509955364 0.1265952509955364 0.144140937501746 0.144140937501746 0.144140937501746 
0.144140937501746 0.1596268744592233 0.1596268744592233 0.1596268744592233 0.1596268744592233 0.172672635930423 0.172672635930423 0.172672635930423 0.172672635930423 
0.1834073195466482 0.1834073195466482 0.1834073195466482 0.1834073195466482 0.1920444330058068 0.1920444330058068 0.1920444330058068 0.1920444330058068 0.1986468547674468 
0.1986468547674468 0.1986468547674468 0.1986468547674468 0.2031658387223348 0.2031658387223348 0.2031658387223348 0.2031658387223348 0.205515373412034 0.205515373412034 
0.205515373412034 0.205515373412034 0.2056615543112979 0.2056615543112979 0.2056615543112979 0.2056615543112979 0.2035956009490006 0.2035956009490006 0.2035956009490006 
0.2035956009490006 0.1993041584960243 0.1993041584960243 0.1993041584960243 0.1993041584960243 0.1928207554900266 0.1928207554900266 0.1928207554900266 0.1928207554900266 
0.1842157490937242 0.1842157490937242 0.1842157490937242 0.1842157490937242 0.173570089568506 0.173570089568506 0.173570089568506 0.173570089568506 0.161000030658074 
0.161000030658074 0.161000030658074 0.161000030658074 0.1466593095908693 0.1466593095908693 0.1466593095908693 0.1466593095908693 0.1307303517535461 0.1307303517535461 
0.1307303517535461 0.1307303517535461 0.1134512649392955 0.1134512649392955 0.1134512649392955 0.1134512649392955 0.09494298954304599 0.09494298954304599 0.09494298954304599 
0.09494298954304599 0.07520069678561073 0.07520069678561073 0.07520069678561073 0.07520069678561073 0.05446611029277058 0.05446611029277058 0.05446611029277058 0.05446611029277058 
0.03325726304932348 0.03325726304932348 0.03325726304932348 0.03325726304932348 0.01201607225895733 0.01201607225895733 0.01201607225895733 0.01201607225895733 -0.009154107559684693 
-0.009154107559684693 -0.009154107559684693 -0.009154107559684693 -0.03035139734076051 -0.03035139734076051 -0.03035139734076051 -0.03035139734076051 -0.05148761297626987 -0.05148761297626987 
-0.05148761297626987 -0.05148761297626987 -0.07221578989293156 -0.07221578989293156 -0.07221578989293156 -0.07221578989293156 -0.09213346351750701 -0.09213346351750701 -0.09213346351750701 
-0.09213346351750701 -0.1109451351527309 -0.1109451351527309 -0.1109451351527309 -0.1109451351527309 -0.1284755794709859 -0.1284755794709859 -0.1284755794709859 -0.1284755794709859 
-0.1445840035014911 -0.1445840035014911 -0.1445840035014911 -0.1445840035014911 -0.1591174182805113 -0.1591174182805113 -0.1591174182805113 -0.1591174182805113 -0.1719160114982222 
-0.1719160114982222 -0.1719160114982222 -0.1719160114982222 -0.1828330909930187 -0.1828330909930187 -0.1828330909930187 -0.1828330909930187 -0.1917470870998789 -0.1917470870998789 
-0.1917470870998789 -0.1917470870998789 -0.1985614943134628 -0.1985614943134628 -0.1985614943134628 -0.1985614943134628 -0.203200760475499 -0.203200760475499 -0.203200760475499 
-0.203200760475499 -0.2056016991222887 -0.2056016991222887 -0.2056016991222887 -0.2056016991222887 -0.2057512006702031 -0.2057512006702031 -0.2057512006702031 -0.2057512006702031 
-0.2036607343170467 -0.2036607343170467 -0.2036607343170467 -0.2036607343170467 -0.1993317467522675 -0.1993317467522675 -0.1993317467522675 -0.1993317467522675 -0.1928275017952976 
-0.1928275017952976 -0.1928275017952976 -0.1928275017952976 -0.1841532061076067 -0.1841532061076067 -0.1841532061076067 -0.1841532061076067 -0.173697576346064 -0.173697576346064 
-0.173697576346064 -0.173697576346064 -0.1603719354015997 -0.1603719354015997 -0.1603719354015997 -0.1603719354015997 -0.1491843001002255 -0.1491843001002255 -0.1491843001002255 
-0.1491843001002255 -0.1215046185722606 -0.1215046185722606 -0.1215046185722606 -0.1215046185722606 -0.07292366555168808 -0.07292366555168808 -0.07292366555168808 -0.07292366555168808 
-0.06453974528602704 -0.06453974528602704 -0.06453974528602704 -0.06453974528602704 -0.05245343669560257 -0.05245343669560257 -0.05245343669560257 -0.05245343669560257 -0.0389884719563979 
-0.0389884719563979 -0.0389884719563979 -0.0389884719563979 -0.02495952961698864 -0.02495952961698864 -0.02495952961698864 -0.02495952961698864 -0.0103156171174604 -0.0103156171174604 
-0.0103156171174604 -0.0103156171174604 0.005662614200854955 0.005662614200854955 0.005662614200854955 0.005662614200854955 0.02189906070613905 0.02189906070613905 0.02189906070613905 
0.02189906070613905 0.03658616686076457 0.03658616686076457 0.03658616686076457 0.03658616686076457 0.0493121529427562 0.0493121529427562 0.0493121529427562 0.0493121529427562 
0.06121588808020587 0.06121588808020587 0.06121588808020587 0.06121588808020587 0.07385266208630921 0.07385266208630921 0.07385266208630921 0.07385266208630921 0.08729260618855068 
0.08729260618855068 0.08729260618855068 0.08729260618855068 0.1002663314583696 0.1002663314583696 0.1002663314583696 0.1002663314583696 0.1115901319696424 0.1115901319696424 
0.1115901319696424 0.1115901319696424 0.1208675385556924 0.1208675385556924 0.1208675385556924 0.1208675385556924 0.1283399363291069 0.1283399363291069 0.1283399363291069 
0.1283399363291069 0.1343222848392001 0.1343222848392001 0.1343222848392001 0.1343222848392001 0.1389165740381426 0.1389165740381426 0.1389165740381426 0.1389165740381426 
0.1420773805427755 0.1420773805427755 0.1420773805427755 0.1420773805427755 0.1437292677835939 0.1437292677835939 0.1437292677835939 0.1437292677835939 0.1438384690462821 
0.1438384690462821 0.1438384690462821 0.1438384690462821 0.1423985447297493 0.1423985447297493 0.1423985447297493 0.1423985447297493 0.1394046590397619 0.1394046590397619 
0.1394046590397619 0.1394046590397619 0.1348798624265312 0.1348798624265312 0.1348798624265312 0.1348798624265312 0.1288702911957343 0.1288702911957343 0.1288702911957343 
0.1288702911957343 0.1214235544486285 0.1214235544486285 0.1214235544486285 0.1214235544486285 0.1126196354869359 0.1126196354869359 0.1126196354869359 0.1126196354869359 
0.1025765037096926 0.1025765037096926 0.1025765037096926 0.1025765037096926 0.09144201021376648 0.09144201021376648 0.09144201021376648 0.09144201021376648 0.07939993176061122 
0.07939993176061122 0.07939993176061122 0.07939993176061122 0.06648980389213811 0.06648980389213811 0.06648980389213811 0.06648980389213811 0.05262570718359811 0.05262570718359811 
0.05262570718359811 0.05262570718359811 0.03796988871209741 0.03796988871209741 0.03796988871209741 0.03796988871209741 0.02303428290730393 0.02303428290730393 0.02303428290730393 
0.02303428290730393 0.008285536643105929 0.008285536643105929 0.008285536643105929 0.008285536643105929 -0.006285865690280544 -0.006285865690280544 -0.006285865690280544 -0.006285865690280544 
-0.02094665026493765 -0.02094665026493765 -0.02094665026493765 -0.02094665026493765 -0.03572049320490511 -0.03572049320490511 -0.03572049320490511 -0.03572049320490511 -0.05031500880491335 
-0.05031500880491335 -0.05031500880491335 -0.05031500880491335 -0.06434446982679855 -0.06434446982679855 -0.06434446982679855 -0.06434446982679855 -0.077550848335984 -0.077550848335984 
-0.077550848335984 -0.077550848335984 -0.0898228508121411 -0.0898228508121411 -0.0898228508121411 -0.0898228508121411 -0.1010878614839968 -0.1010878614839968 -0.1010878614839968 
-0.1010878614839968 -0.1112539523146152 -0.1112539523146152 -0.1112539523146152 -0.1112539523146152 -0.1202100900902643 -0.1202100900902643 -0.1202100900902643 -0.1202100900902643 
-0.1278512643115697 -0.1278512643115697 -0.1278512643115697 -0.1278512643115697 -0.1340912930076082 -0.1340912930076082 -0.1340912930076082 -0.1340912930076082 -0.138862015057105 
-0.138862015057105 -0.138862015057105 -0.138862015057105 -0.1421083038075321 -0.1421083038075321 -0.1421083038075321 -0.1421083038075321 -0.1437928684003366 -0.1437928684003366 
-0.1437928684003366 -0.1437928684003366 -0.143903001244445 -0.143903001244445 -0.143903001244445 -0.143903001244445 -0.1424456306659827 -0.1424456306659827 -0.1424456306659827 
-0.1424456306659827 -0.1394259230813154 -0.1394259230813154 -0.1394259230813154 -0.1394259230813154 -0.1348825250758809 -0.1348825250758809 -0.1348825250758809 -0.1348825250758809 
-0.1288349737179822 -0.1288349737179822 -0.1288349737179822 -0.1288349737179822 -0.1214810646753554 -0.1214810646753554 -0.1214810646753554 -0.1214810646753554 -0.1123332722950967 
-0.1123332722950967 -0.1123332722950967 -0.1123332722950967 -0.1039087219805998 -0.1039087219805998 -0.1039087219805998 -0.1039087219805998 -0.08558016258884794 -0.08558016258884794 
-0.08558016258884794 -0.08558016258884794 -0.02631894969309235 -0.02631894969309235 -0.02631894969309235 -0.02631894969309235 -0.02330200697712315 -0.02330200697712315 -0.02330200697712315 
-0.02330200697712315 -0.01878276174784469 -0.01878276174784469 -0.01878276174784469 -0.01878276174784469 -0.01370113491414227 -0.01370113491414227 -0.01370113491414227 -0.01370113491414227 
-0.009166740357704144 -0.009166740357704144 -0.009166740357704144 -0.009166740357704144 -0.004639920504000791 -0.004639920504000791 -0.004639920504000791 -0.004639920504000791 0.002067703225213476 
0.002067703225213476 0.002067703225213476 0.002067703225213476 0.009327156996772602 0.009327156996772602 0.009327156996772602 0.009327156996772602 0.01458047604127383 0.01458047604127383 
0.01458047604127383 0.01458047604127383 0.01755889426395935 0.01755889426395935 0.01755889426395935 0.01755889426395935 0.01977859270396392 0.01977859270396392 0.01977859270396392 
0.01977859270396392 0.02351692177227239 0.02351692177227239 0.02351692177227239 0.02351692177227239 0.02902010554878209 0.02902010554878209 0.02902010554878209 0.02902010554878209 
0.03488041121082916 0.03488041121082916 0.03488041121082916 0.03488041121082916 0.0397988052571655 0.0397988052571655 0.0397988052571655 0.0397988052571655 0.04338159369804365 
0.04338159369804365 0.04338159369804365 0.04338159369804365 0.0459896239902375 0.0459896239902375 0.0459896239902375 0.0459896239902375 0.04802454141091918 0.04802454141091918 
0.04802454141091918 0.04802454141091918 0.04962620121086909 0.04962620121086909 0.04962620121086909 0.04962620121086909 0.05076327834501002 0.05076327834501002 0.05076327834501002 
0.05076327834501002 0.05136934842724012 0.05136934842724012 0.05136934842724012 0.05136934842724012 0.05142262555746133 0.05142262555746133 0.05142262555746133 0.05142262555746133 
0.0509207929433686 0.0509207929433686 0.0509207929433686 0.0509207929433686 0.04986446525230979 0.04986446525230979 0.04986446525230979 0.04986446525230979 0.04826313055415155 
0.04826313055415155 0.04826313055415155 0.04826313055415155 0.04612957327701026 0.04612957327701026 0.04612957327701026 0.04612957327701026 0.04346593888143752 0.04346593888143752 
0.04346593888143752 0.04346593888143752 0.04029702016065645 0.04029702016065645 0.04029702016065645 0.04029702016065645 0.0366837566473982 0.0366837566473982 0.0366837566473982 
0.0366837566473982 0.03271050451619587 0.03271050451619587 0.03271050451619587 0.03271050451619587 0.02847444347446861 0.02847444347446861 0.02847444347446861 0.02847444347446861 
0.02394022598833807 0.02394022598833807 0.02394022598833807 0.02394022598833807 0.01893685785690788 0.01893685785690788 0.01893685785690788 0.01893685785690788 0.01348734473524476 
0.01348734473524476 0.01348734473524476 0.01348734473524476 0.007994300785102276 0.007994300785102276 0.007994300785102276 0.007994300785102276 0.002837605300164118 0.002837605300164118 
0.002837605300164118 0.002837605300164118 -0.002072656049143308 -0.002072656049143308 -0.002072656049143308 -0.002072656049143308 -0.007077041861027093 -0.007077041861027093 -0.007077041861027093 
-0.007077041861027093 -0.01233589601225291 -0.01233589601225291 -0.01233589601225291 -0.01233589601225291 -0.01768819576198447 -0.01768819576198447 -0.01768819576198447 -0.01768819576198447 
-0.02284192882662098 -0.02284192882662098 -0.02284192882662098 -0.02284192882662098 -0.02763287721964918 -0.02763287721964918 -0.02763287721964918 -0.02763287721964918 -0.03203535854390084 
-0.03203535854390084 -0.03203535854390084 -0.03203535854390084 -0.03606185675008301 -0.03606185675008301 -0.03606185675008301 -0.03606185675008301 -0.03970110287566281 -0.03970110287566281 
-0.03970110287566281 -0.03970110287566281 -0.04291336502786015 -0.04291336502786015 -0.04291336502786015 -0.04291336502786015 -0.04565698559096674 -0.04565698559096674 -0.04565698559096674 
-0.04565698559096674 -0.04789921725639871 -0.04789921725639871 -0.04789921725639871 -0.04789921725639871 -0.0496159414410746 -0.0496159414410746 -0.0496159414410746 -0.0496159414410746 
-0.05078782718767966 -0.05078782718767966 -0.05078782718767966 -0.05078782718767966 -0.0514006584139949 -0.0514006584139949 -0.0514006584139949 -0.0514006584139949 -0.05145122672475359 
-0.05145122672475359 -0.05145122672475359 -0.05145122672475359 -0.05094169795237012 -0.05094169795237012 -0.05094169795237012 -0.05094169795237012 -0.04987474336927011 -0.04987474336927011 
-0.04987474336927011 -0.04987474336927011 -0.04826380322612346 -0.04826380322612346 -0.04826380322612346 -0.04826380322612346 -0.04611956069853895 -0.04611956069853895 -0.04611956069853895 
-0.04611956069853895 -0.04348648300382205 -0.04348648300382205 -0.04348648300382205 -0.04348648300382205 -0.04025122437968829 -0.04025122437968829 -0.04025122437968829 -0.04025122437968829 
-0.03712669023649282 -0.03712669023649282 -0.03712669023649282 -0.03712669023649282 -0.03071147161510997 -0.03071147161510997 -0.03071147161510997 -0.03071147161510997 0.02414012790024223 
0.02414012790024223 0.02414012790024223 0.02414012790024223 0.02143066125386166 0.02143066125386166 0.02143066125386166 0.02143066125386166 0.01748036852169091 0.01748036852169091 
0.01748036852169091 0.01748036852169091 0.0131868843045327 0.0131868843045327 0.0131868843045327 0.0131868843045327 0.00727666071593632 0.00727666071593632 0.00727666071593632 
0.00727666071593632 -0.001519813053162399 -0.001519813053162399 -0.001519813053162399 -0.001519813053162399 0.001811115790250854 0.001811115790250854 0.001811115790250854 0.001811115790250854 
-0.004626962342783194 -0.004626962342783194 -0.004626962342783194 -0.004626962342783194 -0.008823988565773041 -0.008823988565773041 -0.008823988565773041 -0.008823988565773041 -0.01572416435388702 
-0.01572416435388702 -0.01572416435388702 -0.01572416435388702 -0.02345597815263639 -0.02345597815263639 -0.02345597815263639 -0.02345597815263639 -0.02931869499076374 -0.02931869499076374 
-0.02931869499076374 -0.02931869499076374 -0.03278929848128437 -0.03278929848128437 -0.03278929848128437 -0.03278929848128437 -0.03512759075742276 -0.03512759075742276 -0.03512759075742276 
-0.03512759075742276 -0.03750620364829214 -0.03750620364829214 -0.03750620364829214 -0.03750620364829214 -0.04023900779936276 -0.04023900779936276 -0.04023900779936276 -0.04023900779936276 
-0.04290498070683825 -0.04290498070683825 -0.04290498070683825 -0.04290498070683825 -0.04511318439360491 -0.04511318439360491 -0.04511318439360491 -0.04511318439360491 -0.04672421328483357 
-0.04672421328483357 -0.04672421328483357 -0.04672421328483357 -0.04776712813210111 -0.04776712813210111 -0.04776712813210111 -0.04776712813210111 -0.04828971806400088 -0.04828971806400088 
-0.04828971806400088 -0.04828971806400088 -0.04829807712269074 -0.04829807712269074 -0.04829807712269074 -0.04829807712269074 -0.04778569258076724 -0.04778569258076724 -0.04778569258076724 
-0.04778569258076724 -0.04675109026850314 -0.04675109026850314 -0.04675109026850314 -0.04675109026850314 -0.04520036615007023 -0.04520036615007023 -0.04520036615007023 -0.04520036615007023 
-0.04315217396767386 -0.04315217396767386 -0.04315217396767386 -0.04315217396767386 -0.04064897075929195 -0.04064897075929195 -0.04064897075929195 -0.04064897075929195 -0.03772683650462669 
-0.03772683650462669 -0.03772683650462669 -0.03772683650462669 -0.03439499050876235 -0.03439499050876235 -0.03439499050876235 -0.03439499050876235 -0.03064911626932465 -0.03064911626932465 
-0.03064911626932465 -0.03064911626932465 -0.02648403949148954 -0.02648403949148954 -0.02648403949148954 -0.02648403949148954 -0.02199137856674595 -0.02199137856674595 -0.02199137856674595 
-0.02199137856674595 -0.01739317958150475 -0.01739317958150475 -0.01739317958150475 -0.01739317958150475 -0.01280601936634027 -0.01280601936634027 -0.01280601936634027 -0.01280601936634027 
-0.008054661445388826 -0.008054661445388826 -0.008054661445388826 -0.008054661445388826 -0.002939654098009727 -0.002939654098009727 -0.002939654098009727 -0.002939654098009727 0.002437746694861673 
0.002437746694861673 0.002437746694861673 0.002437746694861673 0.007742386813002535 0.007742386813002535 0.007742386813002535 0.007742386813002535 0.01272316269694438 0.01272316269694438 
0.01272316269694438 0.01272316269694438 0.0173992036875923 0.0173992036875923 0.0173992036875923 0.0173992036875923 0.02188680520829172 0.02188680520829172 0.02188680520829172 
0.02188680520829172 0.02621424050715795 0.02621424050715795 0.02621424050715795 0.02621424050715795 0.03031792541103713 0.03031792541103713 0.03031792541103713 0.03031792541103713 
0.03410360768677204 0.03410360768677204 0.03410360768677204 0.03410360768677204 0.03750706716710958 0.03750706716710958 0.03750706716710958 0.03750706716710958 0.04049299416881037 
0.04049299416881037 0.04049299416881037 0.04049299416881037 0.04303439195665926 0.04303439195665926 0.04303439195665926 0.04303439195665926 0.04510571840935674 0.04510571840935674 
0.04510571840935674 0.04510571840935674 0.04668316228999707 0.04668316228999707 0.04668316228999707 0.04668316228999707 0.04774928537505686 0.04774928537505686 0.04774928537505686 
0.04774928537505686 0.04829306367306223 0.04829306367306223 0.04829306367306223 0.04829306367306223 0.04830796117824679 0.04830796117824679 0.04830796117824679 0.04830796117824679 
0.04779335315801883 0.04779335315801883 0.04779335315801883 0.04779335315801883 0.04675332824588332 0.04675332824588332 0.04675332824588332 0.04675332824588332 0.04520186278715467 
0.04520186278715467 0.04520186278715467 0.04520186278715467 0.04313557120610432 0.04313557120610432 0.04313557120610432 0.04313557120610432 0.04066945805721405 0.04066945805721405 
0.04066945805721405 0.04066945805721405 0.03752527813958501 0.03752527813958501 0.03752527813958501 0.03752527813958501 0.03491779421669865 0.03491779421669865 0.03491779421669865 
0.03491779421669865 0.0285084805817303 0.0285084805817303 0.0285084805817303 0.0285084805817303 0.07508717250043997 0.07508717250043997 0.07508717250043997 0.07508717250043997 
0.06676960037397672 0.06676960037397672 0.06676960037397672 0.06676960037397672 0.05423757476759314 0.05423757476759314 0.05423757476759314 0.05423757476759314 0.04037529693520488 
0.04037529693520488 0.04037529693520488 0.04037529693520488 0.02470218432454781 0.02470218432454781 0.02470218432454781 0.02470218432454781 0.007475811041976956 0.007475811041976956 
0.007475811041976956 0.007475811041976956 -0.00531951045123073 -0.00531951045123073 -0.00531951045123073 -0.00531951045123073 -0.01822548977711539 -0.01822548977711539 -0.01822548977711539 
-0.01822548977711539 -0.03235929172522464 -0.03235929172522464 -0.03235929172522464 -0.03235929172522464 -0.04907622194280729 -0.04907622194280729 -0.04907622194280729 -0.04907622194280729 
-0.06645779170380853 -0.06645779170380853 -0.06645779170380853 -0.06645779170380853 -0.08176958129434017 -0.08176958129434017 -0.08176958129434017 -0.08176958129434017 -0.09455651137161381 
-0.09455651137161381 -0.09455651137161381 -0.09455651137161381 -0.1055164371868636 -0.1055164371868636 -0.1055164371868636 -0.1055164371868636 -0.1155376025664824 -0.1155376025664824 
-0.1155376025664824 -0.1155376025664824 -0.1247554749657592 -0.1247554749657592 -0.1247554749657592 -0.1247554749657592 -0.1327513469177075 -0.1327513469177075 -0.1327513469177075 
-0.1327513469177075 -0.1392241173736478 -0.1392241173736478 -0.1392241173736478 -0.1392241173736478 -0.1440653829701163 -0.1440653829701163 -0.1440653829701163 -0.1440653829701163 
-0.1473080983317488 -0.1473080983317488 -0.1473080983317488 -0.1473080983317488 -0.1489714089625774 -0.1489714089625774 -0.1489714089625774 -0.1489714089625774 -0.1490420038348766 
-0.1490420038348766 -0.1490420038348766 -0.1490420038348766 -0.1475023140963654 -0.1475023140963654 -0.1475023140963654 -0.1475023140963654 -0.144352993071599 -0.144352993071599 
-0.144352993071599 -0.144352993071599 -0.1396166757503666 -0.1396166757503666 -0.1396166757503666 -0.1396166757503666 -0.1333418363638581 -0.1333418363638581 -0.1333418363638581 
-0.1333418363638581 -0.125612263464784 -0.125612263464784 -0.125612263464784 -0.125612263464784 -0.1165248908465874 -0.1165248908465874 -0.1165248908465874 -0.1165248908465874 
-0.1061673836505863 -0.1061673836505863 -0.1061673836505863 -0.1061673836505863 -0.09462512163331134 -0.09462512163331134 -0.09462512163331134 -0.09462512163331134 -0.08198862522620134 
-0.08198862522620134 -0.08198862522620134 -0.08198862522620134 -0.06840760484558303 -0.06840760484558303 -0.06840760484558303 -0.06840760484558303 -0.05413352372490463 -0.05413352372490463 
-0.05413352372490463 -0.05413352372490463 -0.03939640975017192 -0.03939640975017192 -0.03939640975017192 -0.03939640975017192 -0.0242634951243024 -0.0242634951243024 -0.0242634951243024 
-0.0242634951243024 -0.008738779976804712 -0.008738779976804712 -0.008738779976804712 -0.008738779976804712 0.007024313955062681 0.007024313955062681 0.007024313955062681 0.007024313955062681 
0.02270196109931389 0.02270196109931389 0.02270196109931389 0.02270196109931389 0.03801427932242211 0.03801427932242211 0.03801427932242211 0.03801427932242211 0.0528277217655118 
0.0528277217655118 0.0528277217655118 0.0528277217655118 0.06706268218266787 0.06706268218266787 0.06706268218266787 0.06706268218266787 0.08061073839689689 0.08061073839689689 
0.08061073839689689 0.08061073839689689 0.0933078357782557 0.0933078357782557 0.0933078357782557 0.0933078357782557 0.1049839543123081 0.1049839543123081 0.1049839543123081 
0.1049839543123081 0.1155020211593668 0.1155020211593668 0.1155020211593668 0.1155020211593668 0.1247495640902833 0.1247495640902833 0.1247495640902833 0.1247495640902833 
0.1326304874860243 0.1326304874860243 0.1326304874860243 0.1326304874860243 0.1390595920848156 0.1390595920848156 0.1390595920848156 0.1390595920848156 0.1439650912665547 
0.1439650912665547 0.1439650912665547 0.1439650912665547 0.1472927021863777 0.1472927021863777 0.1472927021863777 0.1472927021863777 0.1490066516368858 0.1490066516368858 
0.1490066516368858 0.1490066516368858 0.1490885655764671 0.1490885655764671 0.1490885655764671 0.1490885655764671 0.1475380914891621 0.1475380914891621 0.1475380914891621 
0.1475380914891621 0.1443680639523507 0.1443680639523507 0.1443680639523507 0.1443680639523507 0.1396207524486268 0.1396207524486268 0.1396207524486268 0.1396207524486268 
0.1332999546203398 0.1332999546203398 0.1332999546203398 0.1332999546203398 0.125676805950175 0.125676805950175 0.125676805950175 0.125676805950175 0.1160805952873139 
0.1160805952873139 0.1160805952873139 0.1160805952873139 0.1077239000288031 0.1077239000288031 0.1077239000288031 0.1077239000288031 0.08826569732133016 0.08826569732133016 
0.08826569732133016 0.08826569732133016 0.1253352473592584 0.1253352473592584 0.1253352473592584 0.1253352473592584 0.111544453058138 0.111544453058138 0.111544453058138 
0.111544453058138 0.09056278506543869 0.09056278506543869 0.09056278506543869 0.09056278506543869 0.06736869748861882 0.06736869748861882 0.06736869748861882 0.06736869748861882 
0.04254213035087426 0.04254213035087426 0.04254213035087426 0.04254213035087426 0.01694683411457411 0.01694683411457411 0.01694683411457411 0.01694683411457411 -0.00793632262205107 
-0.00793632262205107 -0.00793632262205107 -0.00793632262205107 -0.03188181009654949 -0.03188181009654949 -0.03188181009654949 -0.03188181009654949 -0.05667599842085484 -0.05667599842085484 
-0.05667599842085484 -0.05667599842085484 -0.08316321923231737 -0.08316321923231737 -0.08316321923231737 -0.08316321923231737 -0.1094515804004861 -0.1094515804004861 -0.1094515804004861 
-0.1094515804004861 -0.1338715441939445 -0.1338715441939445 -0.1338715441939445 -0.1338715441939445 -0.1556688465267869 -0.1556688465267869 -0.1556688465267869 -0.1556688465267869 
-0.1750948905110427 -0.1750948905110427 -0.1750948905110427 -0.1750948905110427 -0.1926834780167351 -0.1926834780167351 -0.1926834780167351 -0.1926834780167351 -0.208249500459747 
-0.208249500459747 -0.208249500459747 -0.208249500459747 -0.2214790946851559 -0.2214790946851559 -0.2214790946851559 -0.2214790946851559 -0.2321390014748354 -0.2321390014748354 
-0.2321390014748354 -0.2321390014748354 -0.2401686484118944 -0.2401686484118944 -0.2401686484118944 -0.2401686484118944 -0.2455865772299545 -0.2455865772299545 -0.2455865772299545 
-0.2455865772299545 -0.2483788556620468 -0.2483788556620468 -0.2483788556620468 -0.2483788556620468 -0.2485109064317664 -0.2485109064317664 -0.2485109064317664 -0.2485109064317664 
-0.2459548509655631 -0.2459548509655631 -0.2459548509655631 -0.2459548509655631 -0.2407150358501118 -0.2407150358501118 -0.2407150358501118 -0.2407150358501118 -0.2328315169048864 
-0.2328315169048864 -0.2328315169048864 -0.2328315169048864 -0.2223825718923219 -0.2223825718923219 -0.2223825718923219 -0.2223825718923219 -0.2094913402156712 -0.2094913402156712 
-0.2094913402156712 -0.2094913402156712 -0.194312480170999 -0.194312480170999 -0.194312480170999 -0.194312480170999 -0.1770120825867803 -0.1770120825867803 -0.1770120825867803 
-0.1770120825867803 -0.1577665761110146 -0.1577665761110146 -0.1577665761110146 -0.1577665761110146 -0.1367646430053634 -0.1367646430053634 -0.1367646430053634 -0.1367646430053634 
-0.1142295577033997 -0.1142295577033997 -0.1142295577033997 -0.1142295577033997 -0.09045150360699696 -0.09045150360699696 -0.09045150360699696 -0.09045150360699696 -0.06574434207526028 
-0.06574434207526028 -0.06574434207526028 -0.06574434207526028 -0.04035851445640573 -0.04035851445640573 -0.04035851445640573 -0.04035851445640573 -0.01449462199074783 -0.01449462199074783 
-0.01449462199074783 -0.01449462199074783 0.01158774596854481 0.01158774596854481 0.01158774596854481 0.01158774596854481 0.03755114149688149 0.03755114149688149 0.03755114149688149 
0.03755114149688149 0.0630661211549227 0.0630661211549227 0.0630661211549227 0.0630661211549227 0.08785748641175552 0.08785748641175552 0.08785748641175552 0.08785748641175552 
0.1116920380028837 0.1116920380028837 0.1116920380028837 0.1116920380028837 0.1343258354670204 0.1343258354670204 0.1343258354670204 0.1343258354670204 0.1554968454648452 
0.1554968454648452 0.1554968454648452 0.1554968454648452 0.1749613477035147 0.1749613477035147 0.1749613477035147 0.1749613477035147 0.1925028788244076 0.1925028788244076 
0.1925028788244076 0.1925028788244076 0.2079328135684114 0.2079328135684114 0.2079328135684114 0.2079328135684114 0.2210856432475863 0.2210856432475863 0.2210856432475863 
0.2210856432475863 0.2318171352458754 0.2318171352458754 0.2318171352458754 0.2318171352458754 0.2400086582578526 0.2400086582578526 0.2400086582578526 0.2400086582578526 
0.2455698948046031 0.2455698948046031 0.2455698948046031 0.2455698948046031 0.248440462017623 0.248440462017623 0.248440462017623 0.248440462017623 0.2485892917781695 
0.2485892917781695 0.2485892917781695 0.2485892917781695 0.2460155931234442 0.2460155931234442 0.2460155931234442 0.2460155931234442 0.240741341910984 0.240741341910984 
0.240741341910984 0.240741341910984 0.2328376394475176 0.2328376394475176 0.2328376394475176 0.2328376394475176 0.2223156530608896 0.2223156530608896 0.2223156530608896 
0.2223156530608896 0.2096009729058208 0.2096009729058208 0.2096009729058208 0.2096009729058208 0.1936244977765429 0.1936244977765429 0.1936244977765429 0.1936244977765429 
0.1796250647232458 0.1796250647232458 0.1796250647232458 0.1796250647232458 0.147228200374564 0.147228200374564 0.147228200374564 0.147228200374564 0.1742264479260927 
0.1742264479260927 0.1742264479260927 0.1742264479260927 0.1551086267907889 0.1551086267907889 0.1551086267907889 0.1551086267907889 0.1258875190582871 0.1258875190582871 
0.1258875190582871 0.1258875190582871 0.09354970589642332 0.09354970589642332 0.09354970589642332 0.09354970589642332 0.05952843564347471 0.05952843564347471 0.05952843564347471 
0.05952843564347471 0.02438303641302072 0.02438303641302072 0.02438303641302072 0.02438303641302072 -0.01085498037228135 -0.01085498037228135 -0.01085498037228135 -0.01085498037228135 