Title = Result/Linear_Advection_2D/FVM/MLP_u1_Least_Square/Sine_Wave_2D/Quad60/
FileType = Solution
Variables = q
Zone T = Result/Linear_Advection_2D/FVM/MLP_u1_Least_Square/Sine_Wave_2D/Quad60/
ZoneType = FETriangle
Nodes = 14400
Elements = 7200
DataPacking = Block
StrandID = 11
SolutionTime = 1
-0.007918546096356185 -0.007918546096356185 -0.007918546096356185 -0.007918546096356185 -0.01488103674432811 -0.01488103674432811 -0.01488103674432811 -0.01488103674432811 -0.02456255225994618 -0.02456255225994618 
-0.02456255225994618 -0.02456255225994618 -0.03455909536566246 -0.03455909536566246 -0.03455909536566246 -0.03455909536566246 -0.04428368645416124 -0.04428368645416124 -0.04428368645416124 
-0.04428368645416124 -0.05352595674169421 -0.05352595674169421 -0.05352595674169421 -0.05352595674169421 -0.0621506154905325 -0.0621506154905325 -0.0621506154905325 -0.0621506154905325 
-0.07004044255043294 -0.07004044255043294 -0.07004044255043294 -0.07004044255043294 -0.07709860382952105 -0.07709860382952105 -0.07709860382952105 -0.07709860382952105 -0.08325431410474297 
-0.08325431410474297 -0.08325431410474297 -0.08325431410474297 -0.08846029978243602 -0.08846029978243602 -0.08846029978243602 -0.08846029978243602 -0.09268410533057167 -0.09268410533057167 
-0.09268410533057167 -0.09268410533057167 -0.09589763674761133 -0.09589763674761133 -0.09589763674761133 -0.09589763674761133 -0.09807198637859776 -0.09807198637859776 -0.09807198637859776 
-0.09807198637859776 -0.09917949743711421 -0.09917949743711421 -0.09917949743711421 -0.09917949743711421 -0.09921656753484677 -0.09921656753484677 -0.09921656753484677 -0.09921656753484677 
-0.09818467238677817 -0.09818467238677817 -0.09818467238677817 -0.09818467238677817 -0.09607821202318195 -0.09607821202318195 -0.09607821202318195 -0.09607821202318195 -0.09291506083616231 
-0.09291506083616231 -0.09291506083616231 -0.09291506083616231 -0.08873104820753142 -0.08873104820753142 -0.08873104820753142 -0.08873104820753142 -0.08357494170688486 -0.08357494170688486 
-0.08357494170688486 -0.08357494170688486 -0.07750558938214352 -0.07750558938214352 -0.07750558938214352 -0.07750558938214352 -0.07050152831639103 -0.07050152831639103 -0.07050152831639103 
-0.07050152831639103 -0.06367803311733594 -0.06367803311733594 -0.06367803311733594 -0.06367803311733594 -0.05422971678949232 -0.05422971678949232 -0.05422971678949232 -0.05422971678949232 
-0.04524080339324691 -0.04524080339324691 -0.04524080339324691 -0.04524080339324691 -0.0360876183671224 -0.0360876183671224 -0.0360876183671224 -0.0360876183671224 -0.02610747412199311 
-0.02610747412199311 -0.02610747412199311 -0.02610747412199311 -0.01591566006391805 -0.01591566006391805 -0.01591566006391805 -0.01591566006391805 -0.005546191981930666 -0.005546191981930666 
-0.005546191981930666 -0.005546191981930666 0.004761298301597881 0.004761298301597881 0.004761298301597881 0.004761298301597881 0.01510186052439524 0.01510186052439524 0.01510186052439524 
0.01510186052439524 0.02530055094658537 0.02530055094658537 0.02530055094658537 0.02530055094658537 0.035216526763895 0.035216526763895 0.035216526763895 0.035216526763895 
0.04474550979405643 0.04474550979405643 0.04474550979405643 0.04474550979405643 0.05377536546905282 0.05377536546905282 0.05377536546905282 0.05377536546905282 0.06221237635086547 
0.06221237635086547 0.06221237635086547 0.06221237635086547 0.06996865007205438 0.06996865007205438 0.06996865007205438 0.06996865007205438 0.07695979510364012 0.07695979510364012 
0.07695979510364012 0.07695979510364012 0.08310847843737837 0.08310847843737837 0.08310847843737837 0.08310847843737837 0.0883459557138558 0.0883459557138558 0.0883459557138558 
0.0883459557138558 0.09261571782317669 0.09261571782317669 0.09261571782317669 0.09261571782317669 0.09587127266023089 0.09587127266023089 0.09587127266023089 0.09587127266023089 
0.0980742913337538 0.0980742913337538 0.0980742913337538 0.0980742913337538 0.09919559021787183 0.09919559021787183 0.09919559021787183 0.09919559021787183 0.09923523634467846 
0.09923523634467846 0.09923523634467846 0.09923523634467846 0.0981993497193584 0.0981993497193584 0.0981993497193584 0.0981993497193584 0.09608562475746164 0.09608562475746164 
0.09608562475746164 0.09608562475746164 0.09291330652178306 0.09291330652178306 0.09291330652178306 0.09291330652178306 0.08871836467178108 0.08871836467178108 0.08871836467178108 
0.08871836467178108 0.08355144098850392 0.08355144098850392 0.08355144098850392 0.08355144098850392 0.07747859859937757 0.07747859859937757 0.07747859859937757 0.07747859859937757 
0.07055602762414681 0.07055602762414681 0.07055602762414681 0.07055602762414681 0.06333086652800973 0.06333086652800973 0.06333086652800973 0.06333086652800973 0.05462486538178547 
0.05462486538178547 0.05462486538178547 0.05462486538178547 0.04571872692793932 0.04571872692793932 0.04571872692793932 0.04571872692793932 0.03670866906725875 0.03670866906725875 
0.03670866906725875 0.03670866906725875 0.02691885225934715 0.02691885225934715 0.02691885225934715 0.02691885225934715 0.0181625024751139 0.0181625024751139 0.0181625024751139 
0.0181625024751139 0.002459732887008528 0.002459732887008528 0.002459732887008528 0.002459732887008528 -0.01379429012415444 -0.01379429012415444 -0.01379429012415444 -0.01379429012415444 
-0.02368470263351497 -0.02368470263351497 -0.02368470263351497 -0.02368470263351497 -0.03907842180026833 -0.03907842180026833 -0.03907842180026833 -0.03907842180026833 -0.05544311764980446 
-0.05544311764980446 -0.05544311764980446 -0.05544311764980446 -0.07148293660606872 -0.07148293660606872 -0.07148293660606872 -0.07148293660606872 -0.08671937230712996 -0.08671937230712996 
-0.08671937230712996 -0.08671937230712996 -0.1008871833965908 -0.1008871833965908 -0.1008871833965908 -0.1008871833965908 -0.1137931401938001 -0.1137931401938001 -0.1137931401938001 
-0.1137931401938001 -0.1252951470463013 -0.1252951470463013 -0.1252951470463013 -0.1252951470463013 -0.1352976440298326 -0.1352976440298326 -0.1352976440298326 -0.1352976440298326 
-0.1437407875877119 -0.1437407875877119 -0.1437407875877119 -0.1437407875877119 -0.1505842189676963 -0.1505842189676963 -0.1505842189676963 -0.1505842189676963 -0.1557918792351772 
-0.1557918792351772 -0.1557918792351772 -0.1557918792351772 -0.1593248338896003 -0.1593248338896003 -0.1593248338896003 -0.1593248338896003 -0.1611433528175181 -0.1611433528175181 
-0.1611433528175181 -0.1611433528175181 -0.1612231406870604 -0.1612231406870604 -0.1612231406870604 -0.1612231406870604 -0.1595535223347231 -0.1595535223347231 -0.1595535223347231 
-0.1595535223347231 -0.1561402329741461 -0.1561402329741461 -0.1561402329741461 -0.1561402329741461 -0.1510097088449055 -0.1510097088449055 -0.1510097088449055 -0.1510097088449055 
-0.1442182320829563 -0.1442182320829563 -0.1442182320829563 -0.1442182320829563 -0.1358432422149174 -0.1358432422149174 -0.1358432422149174 -0.1358432422149174 -0.1259804278322968 
-0.1259804278322968 -0.1259804278322968 -0.1259804278322968 -0.1147361921383759 -0.1147361921383759 -0.1147361921383759 -0.1147361921383759 -0.1024579321062136 -0.1024579321062136 
-0.1024579321062136 -0.1024579321062136 -0.08866826983357673 -0.08866826983357673 -0.08866826983357673 -0.08866826983357673 -0.07398200282408515 -0.07398200282408515 -0.07398200282408515 
-0.07398200282408515 -0.05859726124109457 -0.05859726124109457 -0.05859726124109457 -0.05859726124109457 -0.04252952069090032 -0.04252952069090032 -0.04252952069090032 -0.04252952069090032 
-0.02598836783846485 -0.02598836783846485 -0.02598836783846485 -0.02598836783846485 -0.009190910265140909 -0.009190910265140909 -0.009190910265140909 -0.009190910265140909 0.007677971424145428 
0.007677971424145428 0.007677971424145428 0.007677971424145428 0.02446875271673187 0.02446875271673187 0.02446875271673187 0.02446875271673187 0.04101359824345034 0.04101359824345034 
0.04101359824345034 0.04101359824345034 0.05712164328564701 0.05712164328564701 0.05712164328564701 0.05712164328564701 0.07260108367943205 0.07260108367943205 0.07260108367943205 
0.07260108367943205 0.08727767796612315 0.08727767796612315 0.08727767796612315 0.08727767796612315 0.1009954464095356 0.1009954464095356 0.1009954464095356 0.1009954464095356 
0.113607262762372 0.113607262762372 0.113607262762372 0.113607262762372 0.1249757783949345 0.1249757783949345 0.1249757783949345 0.1249757783949345 0.1349754874288994 
0.1349754874288994 0.1349754874288994 0.1349754874288994 0.1434962137534727 0.1434962137534727 0.1434962137534727 0.1434962137534727 0.1504450445291956 0.1504450445291956 
0.1504450445291956 0.1504450445291956 0.1557462228749676 0.1557462228749676 0.1557462228749676 0.1557462228749676 0.1593404132322852 0.1593404132322852 0.1593404132322852 
0.1593404132322852 0.1611853992486043 0.1611853992486043 0.1611853992486043 0.1611853992486043 0.1612657786770844 0.1612657786770844 0.1612657786770844 0.1612657786770844 
0.1595832114929784 0.1595832114929784 0.1595832114929784 0.1595832114929784 0.1561530204808158 0.1561530204808158 0.1561530204808158 0.1561530204808158 0.151005839580916 
0.151005839580916 0.151005839580916 0.151005839580916 0.1441984008986846 0.1441984008986846 0.1441984008986846 0.1441984008986846 0.1358095792887051 0.1358095792887051 
0.1358095792887051 0.1358095792887051 0.1259435103976145 0.1259435103976145 0.1259435103976145 0.1259435103976145 0.114732213228746 0.114732213228746 0.114732213228746 
0.114732213228746 0.1024301297788819 0.1024301297788819 0.1024301297788819 0.1024301297788819 0.08893656914969955 0.08893656914969955 0.08893656914969955 0.08893656914969955 
0.07455968125250358 0.07455968125250358 0.07455968125250358 0.07455968125250358 0.0597403321501444 0.0597403321501444 0.0597403321501444 0.0597403321501444 0.0435202990178884 
0.0435202990178884 0.0435202990178884 0.0435202990178884 0.03038860762423591 0.03038860762423591 0.03038860762423591 0.03038860762423591 0.002930467200093075 0.002930467200093075 
0.002930467200093075 0.002930467200093075 -0.02148520504950004 -0.02148520504950004 -0.02148520504950004 -0.02148520504950004 -0.03734702896833879 -0.03734702896833879 -0.03734702896833879 
-0.03734702896833879 -0.06098287023514057 -0.06098287023514057 -0.06098287023514057 -0.06098287023514057 -0.0862245085981407 -0.0862245085981407 -0.0862245085981407 -0.0862245085981407 
-0.1111751097342162 -0.1111751097342162 -0.1111751097342162 -0.1111751097342162 -0.1350154611385307 -0.1350154611385307 -0.1350154611385307 -0.1350154611385307 -0.1572392375754812 
-0.1572392375754812 -0.1572392375754812 -0.1572392375754812 -0.1774872144543429 -0.1774872144543429 -0.1774872144543429 -0.1774872144543429 -0.195512488710937 -0.195512488710937 
-0.195512488710937 -0.195512488710937 -0.2111623184732631 -0.2111623184732631 -0.2111623184732631 -0.2111623184732631 -0.2243511102806698 -0.2243511102806698 -0.2243511102806698 
-0.2243511102806698 -0.2350269750961758 -0.2350269750961758 -0.2350269750961758 -0.2350269750961758 -0.243144920691996 -0.243144920691996 -0.243144920691996 -0.243144920691996 
-0.2486532353804459 -0.2486532353804459 -0.2486532353804459 -0.2486532353804459 -0.2514967061584851 -0.2514967061584851 -0.2514967061584851 -0.2514967061584851 -0.2516309822349909 
-0.2516309822349909 -0.2516309822349909 -0.2516309822349909 -0.2490342872485369 -0.2490342872485369 -0.2490342872485369 -0.2490342872485369 -0.2437136212592896 -0.2437136212592896 
-0.2437136212592896 -0.2437136212592896 -0.235714297451344 -0.235714297451344 -0.235714297451344 -0.235714297451344 -0.2251206442219172 -0.2251206442219172 -0.2251206442219172 
-0.2251206442219172 -0.2120513531493061 -0.2120513531493061 -0.2120513531493061 -0.2120513531493061 -0.1966539872812987 -0.1966539872812987 -0.1966539872812987 -0.1966539872812987 
-0.1790879694467834 -0.1790879694467834 -0.1790879694467834 -0.1790879694467834 -0.1595763213112516 -0.1595763213112516 -0.1595763213112516 -0.1595763213112516 -0.1383195560458343 
-0.1383195560458343 -0.1383195560458343 -0.1383195560458343 -0.1155660804791548 -0.1155660804791548 -0.1155660804791548 -0.1155660804791548 -0.09153474778193099 -0.09153474778193099 
-0.09153474778193099 -0.09153474778193099 -0.0664864451025069 -0.0664864451025069 -0.0664864451025069 -0.0664864451025069 -0.0406988569736462 -0.0406988569736462 -0.0406988569736462 
-0.0406988569736462 -0.01447731990993891 -0.01447731990993891 -0.01447731990993891 -0.01447731990993891 0.01188468379623788 0.01188468379623788 0.01188468379623788 0.01188468379623788 
0.03811512844863683 0.03811512844863683 0.03811512844863683 0.03811512844863683 0.06393975392313782 0.06393975392313782 0.06393975392313782 0.06393975392313782 0.08907193767952484 
0.08907193767952484 0.08907193767952484 0.08907193767952484 0.1132264477634391 0.1132264477634391 0.1132264477634391 0.1132264477634391 0.1361364206412161 0.1361364206412161 
0.1361364206412161 0.1361364206412161 0.1575531310303452 0.1575531310303452 0.1575531310303452 0.1575531310303452 0.1772445596546166 0.1772445596546166 0.1772445596546166 
0.1772445596546166 0.194995366121491 0.194995366121491 0.194995366121491 0.194995366121491 0.2106102531848439 0.2106102531848439 0.2106102531848439 0.2106102531848439 
0.2239176883080146 0.2239176883080146 0.2239176883080146 0.2239176883080146 0.2347720097923809 0.2347720097923809 0.2347720097923809 0.2347720097923809 0.2430545217393739 
0.2430545217393739 0.2430545217393739 0.2430545217393739 0.2486734477430859 0.2486734477430859 0.2486734477430859 0.2486734477430859 0.2515662331583498 0.2515662331583498 
0.2515662331583498 0.2515662331583498 0.2517029740968652 0.2517029740968652 0.2517029740968652 0.2517029740968652 0.2490839430221196 0.2490839430221196 0.2490839430221196 
0.2490839430221196 0.2437342095223199 0.2437342095223199 0.2437342095223199 0.2437342095223199 0.2357079725791304 0.2357079725791304 0.2357079725791304 0.2357079725791304 
0.2250911077011854 0.2250911077011854 0.2250911077011854 0.2250911077011854 0.2120040626610687 0.2120040626610687 0.2120040626610687 0.2120040626610687 0.1966060646910365 
0.1966060646910365 0.1966060646910365 0.1966060646910365 0.179093707366745 0.179093707366745 0.179093707366745 0.179093707366745 0.1597174454973865 0.1597174454973865 
0.1597174454973865 0.1597174454973865 0.1387615340195096 0.1387615340195096 0.1387615340195096 0.1387615340195096 0.1164226358651258 0.1164226358651258 0.1164226358651258 
0.1164226358651258 0.09327911510338543 0.09327911510338543 0.09327911510338543 0.09327911510338543 0.06803690043179898 0.06803690043179898 0.06803690043179898 0.06803690043179898 
0.04719031294579681 0.04719031294579681 0.04719031294579681 0.04719031294579681 0.004858814525435963 0.004858814525435963 0.004858814525435963 0.004858814525435963 -0.02934102257994803 
-0.02934102257994803 -0.02934102257994803 -0.02934102257994803 -0.05146384887128508 -0.05146384887128508 -0.05146384887128508 -0.05146384887128508 -0.08410512475196491 -0.08410512475196491 
-0.08410512475196491 -0.08410512475196491 -0.1187456699932545 -0.1187456699932545 -0.1187456699932545 -0.1187456699932545 -0.1529592016259579 -0.1529592016259579 -0.1529592016259579 
-0.1529592016259579 -0.185696744591496 -0.185696744591496 -0.185696744591496 -0.185696744591496 -0.2162708874475949 -0.2162708874475949 -0.2162708874475949 -0.2162708874475949 
-0.2441670769712155 -0.2441670769712155 -0.2441670769712155 -0.2441670769712155 -0.2690206205177009 -0.2690206205177009 -0.2690206205177009 -0.2690206205177009 -0.2906030411573738 
-0.2906030411573738 -0.2906030411573738 -0.2906030411573738 -0.3087865760485455 -0.3087865760485455 -0.3087865760485455 -0.3087865760485455 -0.3234979116715864 -0.3234979116715864 
-0.3234979116715864 -0.3234979116715864 -0.3346784846596018 -0.3346784846596018 -0.3346784846596018 -0.3346784846596018 -0.3422630801419666 -0.3422630801419666 -0.3422630801419666 
-0.3422630801419666 -0.346180857184837 -0.346180857184837 -0.346180857184837 -0.346180857184837 -0.3463714093360311 -0.3463714093360311 -0.3463714093360311 -0.3463714093360311 
-0.3428025678387699 -0.3428025678387699 -0.3428025678387699 -0.3428025678387699 -0.3354849720627145 -0.3354849720627145 -0.3354849720627145 -0.3354849720627145 -0.3244809687899191 
-0.3244809687899191 -0.3244809687899191 -0.3244809687899191 -0.3099058596291216 -0.3099058596291216 -0.3099058596291216 -0.3099058596291216 -0.2919231172561325 -0.2919231172561325 
-0.2919231172561325 -0.2919231172561325 -0.270736440624771 -0.270736440624771 -0.270736440624771 -0.270736440624771 -0.246583341191178 -0.246583341191178 -0.246583341191178 
-0.246583341191178 -0.2197316250487963 -0.2197316250487963 -0.2197316250487963 -0.2197316250487963 -0.1904746597008583 -0.1904746597008583 -0.1904746597008583 -0.1904746597008583 
-0.1591338152142411 -0.1591338152142411 -0.1591338152142411 -0.1591338152142411 -0.1260524030035744 -0.1260524030035744 -0.1260524030035744 -0.1260524030035744 -0.09158540791277565 
-0.09158540791277565 -0.09158540791277565 -0.09158540791277565 -0.05610764976360104 -0.05610764976360104 -0.05610764976360104 -0.05610764976360104 -0.02001665798392862 -0.02001665798392862 
-0.02001665798392862 -0.02001665798392862 0.0162863959352481 0.0162863959352481 0.0162863959352481 0.0162863959352481 0.0524085790264059 0.0524085790264059 0.0524085790264059 
0.0524085790264059 0.08796024384637494 0.08796024384637494 0.08796024384637494 0.08796024384637494 0.1225507012288458 0.1225507012288458 0.1225507012288458 0.1225507012288458 
0.1557972532186122 0.1557972532186122 0.1557972532186122 0.1557972532186122 0.187334525148062 0.187334525148062 0.187334525148062 0.187334525148062 0.2168188281134517 
0.2168188281134517 0.2168188281134517 0.2168188281134517 0.2439287359553546 0.2439287359553546 0.2439287359553546 0.2439287359553546 0.2683671975685138 0.2683671975685138 
0.2683671975685138 0.2683671975685138 0.289865912023739 0.289865912023739 0.289865912023739 0.289865912023739 0.3081888937681301 0.3081888937681301 0.3081888937681301 
0.3081888937681301 0.323135326463222 0.323135326463222 0.323135326463222 0.323135326463222 0.3345413962279276 0.3345413962279276 0.3345413962279276 0.3345413962279276 
0.3422815691901158 0.3422815691901158 0.3422815691901158 0.3422815691901158 0.3462709027973168 0.3462709027973168 0.3462709027973168 0.3462709027973168 0.34646706551108 
0.34646706551108 0.34646706551108 0.34646706551108 0.3428682458338986 0.3428682458338986 0.3428682458338986 0.3428682458338986 0.3355109408580084 0.3355109408580084 
0.3355109408580084 0.3355109408580084 0.3244707816781945 0.3244707816781945 0.3244707816781945 0.3244707816781945 0.309865788826078 0.309865788826078 0.309865788826078 
0.309865788826078 0.2918616766733943 0.2918616766733943 0.2918616766733943 0.2918616766733943 0.270677007812377 0.270677007812377 0.270677007812377 0.270677007812377 
0.2465892133728551 0.2465892133728551 0.2465892133728551 0.2465892133728551 0.2199232336672905 0.2199232336672905 0.2199232336672905 0.2199232336672905 0.1910725076776736 
0.1910725076776736 0.1910725076776736 0.1910725076776736 0.1603060351754145 0.1603060351754145 0.1603060351754145 0.1603060351754145 0.1284272876090328 0.1284272876090328 
0.1284272876090328 0.1284272876090328 0.0937351591819426 0.0937351591819426 0.0937351591819426 0.0937351591819426 0.06478531306403736 0.06478531306403736 0.06478531306403736 
0.06478531306403736 0.006883576628730925 0.006883576628730925 0.006883576628730925 0.006883576628730925 -0.03702761864041271 -0.03702761864041271 -0.03702761864041271 -0.03702761864041271 
-0.06511768758346917 -0.06511768758346917 -0.06511768758346917 -0.06511768758346917 -0.106597184019501 -0.106597184019501 -0.106597184019501 -0.106597184019501 -0.1505578895107068 
-0.1505578895107068 -0.1505578895107068 -0.1505578895107068 -0.1939057421841264 -0.1939057421841264 -0.1939057421841264 -0.1939057421841264 -0.2353470527040626 -0.2353470527040626 
-0.2353470527040626 -0.2353470527040626 -0.2740453141637591 -0.2740453141637591 -0.2740453141637591 -0.2740453141637591 -0.3093677071064186 -0.3093677071064186 -0.3093677071064186 
-0.3093677071064186 -0.3408568186267298 -0.3408568186267298 -0.3408568186267298 -0.3408568186267298 -0.3682175848457568 -0.3682175848457568 -0.3682175848457568 -0.3682175848457568 
-0.3912791936069467 -0.3912791936069467 -0.3912791936069467 -0.3912791936069467 -0.4099414773750244 -0.4099414773750244 -0.4099414773750244 -0.4099414773750244 -0.4241263220096907 
-0.4241263220096907 -0.4241263220096907 -0.4241263220096907 -0.4337506798270411 -0.4337506798270411 -0.4337506798270411 -0.4337506798270411 -0.4387258064476207 -0.4387258064476207 
-0.4387258064476207 -0.4387258064476207 -0.4389751860171883 -0.4389751860171883 -0.4389751860171883 -0.4389751860171883 -0.4344579946090311 -0.4344579946090311 -0.4344579946090311 
-0.4344579946090311 -0.4251883928590859 -0.4251883928590859 -0.4251883928590859 -0.4251883928590859 -0.4112462125254048 -0.4112462125254048 -0.4112462125254048 -0.4112462125254048 
-0.3927781833717197 -0.3927781833717197 -0.3927781833717197 -0.3927781833717197 -0.3699913491377325 -0.3699913491377325 -0.3699913491377325 -0.3699913491377325 -0.3431438409553359 
-0.3431438409553359 -0.3431438409553359 -0.3431438409553359 -0.3125368163758249 -0.3125368163758249 -0.3125368163758249 -0.3125368163758249 -0.2785093442937839 -0.2785093442937839 
-0.2785093442937839 -0.2785093442937839 -0.2414340463522017 -0.2414340463522017 -0.2414340463522017 -0.2414340463522017 -0.2017161937364925 -0.2017161937364925 -0.2017161937364925 
-0.2017161937364925 -0.1597903741873026 -0.1597903741873026 -0.1597903741873026 -0.1597903741873026 -0.1161126830981085 -0.1161126830981085 -0.1161126830981085 -0.1161126830981085 
-0.07115880480881703 -0.07115880480881703 -0.07115880480881703 -0.07115880480881703 -0.02542318016996328 -0.02542318016996328 -0.02542318016996328 -0.02542318016996328 0.02058961640997722 
0.02058961640997722 0.02058961640997722 0.02058961640997722 0.06637538666829987 0.06637538666829987 0.06637538666829987 0.06637538666829987 0.1114339158338576 0.1114339158338576 
0.1114339158338576 0.1114339158338576 0.1552711312677479 0.1552711312677479 0.1552711312677479 0.1552711312677479 0.1974055723697234 0.1974055723697234 0.1974055723697234 
0.1974055723697234 0.2373760126006678 0.2373760126006678 0.2373760126006678 0.2373760126006678 0.2747459521977422 0.2747459521977422 0.2747459521977422 0.2747459521977422 
0.3091067860900378 0.3091067860900378 0.3091067860900378 0.3091067860900378 0.3400820463422148 0.3400820463422148 0.3400820463422148 0.3400820463422148 0.3673318881800388 
0.3673318881800388 0.3673318881800388 0.3673318881800388 0.390557343193361 0.390557343193361 0.390557343193361 0.390557343193361 0.4095037294635682 0.4095037294635682 
0.4095037294635682 0.4095037294635682 0.4239632444432351 0.4239632444432351 0.4239632444432351 0.4239632444432351 0.4337772041571569 0.4337772041571569 0.4337772041571569 
0.4337772041571569 0.4388383876794454 0.4388383876794454 0.4388383876794454 0.4388383876794454 0.4390923277166741 0.4390923277166741 0.4390923277166741 0.4390923277166741 
0.4345360822860542 0.4345360822860542 0.4345360822860542 0.4345360822860542 0.4252163372127905 0.4252163372127905 0.4252163372127905 0.4252163372127905 0.4112296962704821 
0.4112296962704821 0.4112296962704821 0.4112296962704821 0.392726219948194 0.392726219948194 0.392726219948194 0.392726219948194 0.3699154241075658 0.3699154241075658 
0.3699154241075658 0.3699154241075658 0.3430734804981099 0.3430734804981099 0.3430734804981099 0.3430734804981099 0.312550881548664 0.312550881548664 0.312550881548664 
0.312550881548664 0.2787583163978046 0.2787583163978046 0.2787583163978046 0.2787583163978046 0.2421922208867346 0.2421922208867346 0.2421922208867346 0.2421922208867346 
0.2031973088422563 0.2031973088422563 0.2031973088422563 0.2031973088422563 0.1627801561969928 0.1627801561969928 0.1627801561969928 0.1627801561969928 0.1188519035043189 
0.1188519035043189 0.1188519035043189 0.1188519035043189 0.08203858866709252 0.08203858866709252 0.08203858866709252 0.08203858866709252 0.008800791643625391 0.008800791643625391 
0.008800791643625391 0.008800791643625391 -0.04437936843930949 -0.04437936843930949 -0.04437936843930949 -0.04437936843930949 -0.07809431664834784 -0.07809431664834784 -0.07809431664834784 
-0.07809431664834784 -0.127928953633365 -0.127928953633365 -0.127928953633365 -0.127928953633365 -0.1807757029320983 -0.1807757029320983 -0.1807757029320983 -0.1807757029320983 
-0.2328785844665564 -0.2328785844665564 -0.2328785844665564 -0.2328785844665564 -0.2826621185956395 -0.2826621185956395 -0.2826621185956395 -0.2826621185956395 -0.3291228906842804 
-0.3291228906842804 -0.3291228906842804 -0.3291228906842804 -0.3715144691846049 -0.3715144691846049 -0.3715144691846049 -0.3715144691846049 -0.409301937349792 -0.409301937349792 
-0.409301937349792 -0.409301937349792 -0.4421400009348394 -0.4421400009348394 -0.4421400009348394 -0.4421400009348394 -0.4698264842671173 -0.4698264842671173 -0.4698264842671173 
-0.4698264842671173 -0.4922396354198096 -0.4922396354198096 -0.4922396354198096 -0.4922396354198096 -0.5092824548027987 -0.5092824548027987 -0.5092824548027987 -0.5092824548027987 
-0.5208521323788324 -0.5208521323788324 -0.5208521323788324 -0.5208521323788324 -0.5268395187329635 -0.5268395187329635 -0.5268395187329635 -0.5268395187329635 -0.5271505186276656 
-0.5271505186276656 -0.5271505186276656 -0.5271505186276656 -0.5217347574004279 -0.5217347574004279 -0.5217347574004279 -0.5217347574004279 -0.5106091969717881 -0.5106091969717881 
-0.5106091969717881 -0.5106091969717881 -0.4938705776019012 -0.4938705776019012 -0.4938705776019012 -0.4938705776019012 -0.4716958375855542 -0.4716958375855542 -0.4716958375855542 
-0.4716958375855542 -0.4443341255189782 -0.4443341255189782 -0.4443341255189782 -0.4443341255189782 -0.4120958155570855 -0.4120958155570855 -0.4120958155570855 -0.4120958155570855 
-0.3753427952848398 -0.3753427952848398 -0.3753427952848398 -0.3753427952848398 -0.3344821540707377 -0.3344821540707377 -0.3344821540707377 -0.3344821540707377 -0.2899617294111271 
-0.2899617294111271 -0.2899617294111271 -0.2899617294111271 -0.2422674617886446 -0.2422674617886446 -0.2422674617886446 -0.2422674617886446 -0.1919201516462761 -0.1919201516462761 
-0.1919201516462761 -0.1919201516462761 -0.1394693983849221 -0.1394693983849221 -0.1394693983849221 -0.1394693983849221 -0.08548804280852258 -0.08548804280852258 -0.08548804280852258 
-0.08548804280852258 -0.03056774648922557 -0.03056774648922557 -0.03056774648922557 -0.03056774648922557 0.02468804131297386 0.02468804131297386 0.02468804131297386 0.02468804131297386 
0.07967273328932881 0.07967273328932881 0.07967273328932881 0.07967273328932881 0.1337833063096349 0.1337833063096349 0.1337833063096349 0.1337833063096349 0.1864264309482268 
0.1864264309482268 0.1864264309482268 0.1864264309482268 0.2370254507793994 0.2370254507793994 0.2370254507793994 0.2370254507793994 0.28502686792527 0.28502686792527 
0.28502686792527 0.28502686792527 0.3299058767071875 0.3299058767071875 0.3299058767071875 0.3299058767071875 0.371171465244639 0.371171465244639 0.371171465244639 
0.371171465244639 0.4083714943285828 0.4083714943285828 0.4083714943285828 0.4083714943285828 0.4410979921318424 0.4410979921318424 0.4410979921318424 0.4410979921318424 
0.468991980260638 0.468991980260638 0.468991980260638 0.468991980260638 0.4917474924803173 0.4917474924803173 0.4917474924803173 0.4917474924803173 0.5091149352580421 
0.5091149352580421 0.5091149352580421 0.5091149352580421 0.5209039636465835 0.5209039636465835 0.5209039636465835 0.5209039636465835 0.5269859290980363 0.5269859290980363 
0.5269859290980363 0.5269859290980363 0.5272949961777975 0.5272949961777975 0.5272949961777975 0.5272949961777975 0.5218272146838603 0.5218272146838603 0.5218272146838603 
0.5218272146838603 0.5106388727747676 0.5106388727747676 0.5106388727747676 0.5106388727747676 0.4938466566338675 0.4938466566338675 0.4938466566338675 0.4938466566338675 
0.4716310008081801 0.4716310008081801 0.4716310008081801 0.4716310008081801 0.4442432830431551 0.4442432830431551 0.4442432830431551 0.4442432830431551 0.4120145505391094 
0.4120145505391094 0.4120145505391094 0.4120145505391094 0.3753646948665026 0.3753646948665026 0.3753646948665026 0.3753646948665026 0.3347860038933849 0.3347860038933849 
0.3347860038933849 0.3347860038933849 0.2908729801961938 0.2908729801961938 0.2908729801961938 0.2908729801961938 0.2440422437885207 0.2440422437885207 0.2440422437885207 
0.2440422437885207 0.1954943037952913 0.1954943037952913 0.1954943037952913 0.1954943037952913 0.1427625704838368 0.1427625704838368 0.1427625704838368 0.1427625704838368 
0.09850622572859319 0.09850622572859319 0.09850622572859319 0.09850622572859319 0.01059983175935355 0.01059983175935355 0.01059983175935355 0.01059983175935355 -0.05127632113024813 
-0.05127632113024813 -0.05127632113024813 -0.05127632113024813 -0.09024972603607501 -0.09024972603607501 -0.09024972603607501 -0.09024972603607501 -0.1478662418907133 -0.1478662418907133 
-0.1478662418907133 -0.1478662418907133 -0.2089944320079182 -0.2089944320079182 -0.2089944320079182 -0.2089944320079182 -0.269285629503012 -0.269285629503012 -0.269285629503012 
-0.269285629503012 -0.3268978722441009 -0.3268978722441009 -0.3268978722441009 -0.3268978722441009 -0.3806538066617877 -0.3806538066617877 -0.3806538066617877 -0.3806538066617877 
-0.4296840479992952 -0.4296840479992952 -0.4296840479992952 -0.4296840479992952 -0.4733734493264439 -0.4733734493264439 -0.4733734493264439 -0.4733734493264439 -0.5113310154438832 
-0.5113310154438832 -0.5113310154438832 -0.5113310154438832 -0.5433312441610328 -0.5433312441610328 -0.5433312441610328 -0.5433312441610328 -0.569238947248606 -0.569238947248606 