Title = Result/Linear_Advection_2D/FVM/MLP_u1_Least_Square/Sine_Wave_2D/Quad60/
FileType = Solution
Variables = q
Zone T = Result/Linear_Advection_2D/FVM/MLP_u1_Least_Square/Sine_Wave_2D/Quad60/
ZoneType = FETriangle
Nodes = 14400
Elements = 7200
DataPacking = Block
StrandID = 7
SolutionTime = 0.6000000000000001
-0.482266626423363 -0.482266626423363 -0.482266626423363 -0.482266626423363 -0.427725755865057 -0.427725755865057 -0.427725755865057 -0.427725755865057 -0.3437189518678914 -0.3437189518678914 
-0.3437189518678914 -0.3437189518678914 -0.2503011863709458 -0.2503011863709458 -0.2503011863709458 -0.2503011863709458 -0.1528471476106574 -0.1528471476106574 -0.1528471476106574 
-0.1528471476106574 -0.05341585886446859 -0.05341585886446859 -0.05341585886446859 -0.05341585886446859 0.04667138625923062 0.04667138625923062 0.04667138625923062 0.04667138625923062 
0.1462554373780088 0.1462554373780088 0.1462554373780088 0.1462554373780088 0.2442289032127423 0.2442289032127423 0.2442289032127423 0.2442289032127423 0.339520978707417 
0.339520978707417 0.339520978707417 0.339520978707417 0.4310948698936342 0.4310948698936342 0.4310948698936342 0.4310948698936342 0.5179503558953805 0.5179503558953805 
0.5179503558953805 0.5179503558953805 0.5991340707106076 0.5991340707106076 0.5991340707106076 0.5991340707106076 0.6737537813838972 0.6737537813838972 0.6737537813838972 
0.6737537813838972 0.7409909152611103 0.7409909152611103 0.7409909152611103 0.7409909152611103 0.8001094463217242 0.8001094463217242 0.8001094463217242 0.8001094463217242 
0.8504623626758463 0.8504623626758463 0.8504623626758463 0.8504623626758463 0.891497573980061 0.891497573980061 0.891497573980061 0.891497573980061 0.9227644291648472 
0.9227644291648472 0.9227644291648472 0.9227644291648472 0.9439199531430149 0.9439199531430149 0.9439199531430149 0.9439199531430149 0.9547259786386941 0.9547259786386941 
0.9547259786386941 0.9547259786386941 0.9550730450333985 0.9550730450333985 0.9550730450333985 0.9550730450333985 0.9449750459751007 0.9449750459751007 0.9449750459751007 
0.9449750459751007 0.9245233976858308 0.9245233976858308 0.9245233976858308 0.9245233976858308 0.8939404819934139 0.8939404819934139 0.8939404819934139 0.8939404819934139 
0.8535469127304386 0.8535469127304386 0.8535469127304386 0.8535469127304386 0.8037686060917844 0.8037686060917844 0.8037686060917844 0.8037686060917844 0.7451563509764596 
0.7451563509764596 0.7451563509764596 0.7451563509764596 0.6784279661626106 0.6784279661626106 0.6784279661626106 0.6784279661626106 0.6045080384277455 0.6045080384277455 
0.6045080384277455 0.6045080384277455 0.524522452779641 0.524522452779641 0.524522452779641 0.524522452779641 0.4396997902410683 0.4396997902410683 0.4396997902410683 
0.4396997902410683 0.3511765469115674 0.3511765469115674 0.3511765469115674 0.3511765469115674 0.2597743526855237 0.2597743526855237 0.2597743526855237 0.2597743526855237 
0.1658753949175812 0.1658753949175812 0.1658753949175812 0.1658753949175812 0.06951067303025713 0.06951067303025713 0.06951067303025713 0.06951067303025713 -0.02932175111819704 
-0.02932175111819704 -0.02932175111819704 -0.02932175111819704 -0.1302294268467157 -0.1302294268467157 -0.1302294268467157 -0.1302294268467157 -0.2321010541134472 -0.2321010541134472 
-0.2321010541134472 -0.2321010541134472 -0.3330702595942489 -0.3330702595942489 -0.3330702595942489 -0.3330702595942489 -0.4308112415547347 -0.4308112415547347 -0.4308112415547347 
-0.4308112415547347 -0.5230342565174098 -0.5230342565174098 -0.5230342565174098 -0.5230342565174098 -0.607946801350695 -0.607946801350695 -0.607946801350695 -0.607946801350695 
-0.6844778636911243 -0.6844778636911243 -0.6844778636911243 -0.6844778636911243 -0.7522014693323539 -0.7522014693323539 -0.7522014693323539 -0.7522014693323539 -0.8110513182291732 
-0.8110513182291732 -0.8110513182291732 -0.8110513182291732 -0.8610008701011354 -0.8610008701011354 -0.8610008701011354 -0.8610008701011354 -0.9018605229699853 -0.9018605229699853 
-0.9018605229699853 -0.9018605229699853 -0.933249385929789 -0.933249385929789 -0.933249385929789 -0.933249385929789 -0.9546985623355205 -0.9546985623355205 -0.9546985623355205 
-0.9546985623355205 -0.9657877420836969 -0.9657877420836969 -0.9657877420836969 -0.9657877420836969 -0.9662699005582455 -0.9662699005582455 -0.9662699005582455 -0.9662699005582455 
-0.9561088465559637 -0.9561088465559637 -0.9561088465559637 -0.9561088465559637 -0.9353897321537574 -0.9353897321537574 -0.9353897321537574 -0.9353897321537574 -0.9044440331209099 
-0.9044440331209099 -0.9044440331209099 -0.9044440331209099 -0.8633602732100744 -0.8633602732100744 -0.8633602732100744 -0.8633602732100744 -0.8137690445808109 -0.8137690445808109 
-0.8137690445808109 -0.8137690445808109 -0.7513631650061119 -0.7513631650061119 -0.7513631650061119 -0.7513631650061119 -0.696864069728157 -0.696864069728157 -0.696864069728157 
-0.696864069728157 -0.5688211299204013 -0.5688211299204013 -0.5688211299204013 -0.5688211299204013 -0.4873034443659919 -0.4873034443659919 -0.4873034443659919 -0.4873034443659919 
-0.4322121372839056 -0.4322121372839056 -0.4322121372839056 -0.4322121372839056 -0.347407130906057 -0.347407130906057 -0.347407130906057 -0.347407130906057 -0.2530176808057761 
-0.2530176808057761 -0.2530176808057761 -0.2530176808057761 -0.1545230661243544 -0.1545230661243544 -0.1545230661243544 -0.1545230661243544 -0.05402112736434406 -0.05402112736434406 
-0.05402112736434406 -0.05402112736434406 0.04714631164385051 0.04714631164385051 0.04714631164385051 0.04714631164385051 0.1478054526685472 0.1478054526685472 0.1478054526685472 
0.1478054526685472 0.2468362776464838 0.2468362776464838 0.2468362776464838 0.2468362776464838 0.3431563808309813 0.3431563808309813 0.3431563808309813 0.3431563808309813 
0.4357179165988979 0.4357179165988979 0.4357179165988979 0.4357179165988979 0.5235099233609877 0.5235099233609877 0.5235099233609877 0.5235099233609877 0.6055686777879077 
0.6055686777879077 0.6055686777879077 0.6055686777879077 0.6809922612981429 0.6809922612981429 0.6809922612981429 0.6809922612981429 0.7489533777183085 0.7489533777183085 
0.7489533777183085 0.7489533777183085 0.8087082818288561 0.8087082818288561 0.8087082818288561 0.8087082818288561 0.8596031012680119 0.8596031012680119 0.8596031012680119 
0.8596031012680119 0.901079576132379 0.901079576132379 0.901079576132379 0.901079576132379 0.9326825924171358 0.9326825924171358 0.9326825924171358 0.9326825924171358 
0.9540638081377414 0.9540638081377414 0.9540638081377414 0.9540638081377414 0.964983360325528 0.964983360325528 0.964983360325528 0.964983360325528 0.9653365594503613 
0.9653365594503613 0.9653365594503613 0.9653365594503613 0.9551282317294422 0.9551282317294422 0.9551282317294422 0.9551282317294422 0.9344617159265585 0.9344617159265585 
0.9344617159265585 0.9344617159265585 0.9035534706861612 0.9035534706861612 0.9035534706861612 0.9035534706861612 0.8627277860887168 0.8627277860887168 0.8627277860887168 
0.8627277860887168 0.8124155647792799 0.8124155647792799 0.8124155647792799 0.8124155647792799 0.7531739561609216 0.7531739561609216 0.7531739561609216 0.7531739561609216 
0.6857284980306005 0.6857284980306005 0.6857284980306005 0.6857284980306005 0.6110134942225065 0.6110134942225065 0.6110134942225065 0.6110134942225065 0.530166576053861 
0.530166576053861 0.530166576053861 0.530166576053861 0.4444296532708535 0.4444296532708535 0.4444296532708535 0.4444296532708535 0.3549523985505721 0.3549523985505721 
0.3549523985505721 0.3549523985505721 0.2625668652239377 0.2625668652239377 0.2625668652239377 0.2625668652239377 0.1676607136322895 0.1676607136322895 0.1676607136322895 
0.1676607136322895 0.070265374441603 0.070265374441603 0.070265374441603 0.070265374441603 -0.02962275987811901 -0.02962275987811901 -0.02962275987811901 -0.02962275987811901 
-0.1316098492232536 -0.1316098492232536 -0.1316098492232536 -0.1316098492232536 -0.234575230660164 -0.234575230660164 -0.234575230660164 -0.234575230660164 -0.3366333488270887 
-0.3366333488270887 -0.3366333488270887 -0.3366333488270887 -0.4354320242809592 -0.4354320242809592 -0.4354320242809592 -0.4354320242809592 -0.528653987827342 -0.528653987827342 
-0.528653987827342 -0.528653987827342 -0.6144845716762481 -0.6144845716762481 -0.6144845716762481 -0.6144845716762481 -0.6918398148311186 -0.6918398148311186 -0.6918398148311186 
-0.6918398148311186 -0.7602897222877775 -0.7602897222877775 -0.7602897222877775 -0.7602897222877775 -0.8197691793069264 -0.8197691793069264 -0.8197691793069264 -0.8197691793069264 
-0.8702532649810767 -0.8702532649810767 -0.8702532649810767 -0.8702532649810767 -0.9115510935706839 -0.9115510935706839 -0.9115510935706839 -0.9115510935706839 -0.9432779356710128 
-0.9432779356710128 -0.9432779356710128 -0.9432779356710128 -0.9649573692978537 -0.9649573692978537 -0.9649573692978537 -0.9649573692978537 -0.9761644420066814 -0.9761644420066814 
-0.9761644420066814 -0.9761644420066814 -0.9766551533700796 -0.9766551533700796 -0.9766551533700796 -0.9766551533700796 -0.9663827516839434 -0.9663827516839434 -0.9663827516839434 
-0.9663827516839434 -0.9454455791113465 -0.9454455791113465 -0.9454455791113465 -0.9454455791113465 -0.9141702923734393 -0.9141702923734393 -0.9141702923734393 -0.9141702923734393 
-0.8726455002915455 -0.8726455002915455 -0.8726455002915455 -0.8726455002915455 -0.8225248834583263 -0.8225248834583263 -0.8225248834583263 -0.8225248834583263 -0.7594411554882133 
-0.7594411554882133 -0.7594411554882133 -0.7594411554882133 -0.7043365883786523 -0.7043365883786523 -0.7043365883786523 -0.7043365883786523 -0.5751625477774268 -0.5751625477774268 
-0.5751625477774268 -0.5751625477774268 -0.4914245597092435 -0.4914245597092435 -0.4914245597092435 -0.4914245597092435 -0.435752537737185 -0.435752537737185 -0.435752537737185 
-0.435752537737185 -0.3502285622537101 -0.3502285622537101 -0.3502285622537101 -0.3502285622537101 -0.2550802980159925 -0.2550802980159925 -0.2550802980159925 -0.2550802980159925 
-0.1557921937961588 -0.1557921937961588 -0.1557921937961588 -0.1557921937961588 -0.05447438998463242 -0.05447438998463242 -0.05447438998463242 -0.05447438998463242 0.0475196296684019 
0.0475196296684019 0.0475196296684019 0.0475196296684019 0.1490050812390566 0.1490050812390566 0.1490050812390566 0.1490050812390566 0.2488518584943491 0.2488518584943491 
0.2488518584943491 0.2488518584943491 0.3459682451987441 0.3459682451987441 0.3459682451987441 0.3459682451987441 0.4392974412574343 0.4392974412574343 0.4392974412574343 
0.4392974412574343 0.5278195540937916 0.5278195540937916 0.5278195540937916 0.5278195540937916 0.6105620022555865 0.6105620022555865 0.6105620022555865 0.6105620022555865 
0.6866144906959235 0.6866144906959235 0.6866144906959235 0.6866144906959235 0.7551422392985311 0.7551422392985311 0.7551422392985311 0.7551422392985311 0.8153950089654983 
0.8153950089654983 0.8153950089654983 0.8153950089654983 0.8667132830395882 0.8667132830395882 0.8667132830395882 0.8667132830395882 0.9085338379886553 0.9085338379886553 
0.9085338379886553 0.9085338379886553 0.9403978388889184 0.9403978388889184 0.9403978388889184 0.9403978388889184 0.961952726734269 0.961952726734269 0.961952726734269 
0.961952726734269 0.9729586572970645 0.9729586572970645 0.9729586572970645 0.9729586572970645 0.9733093043854677 0.9733093043854677 0.9733093043854677 0.9733093043854677 
0.9630273954099793 0.9630273954099793 0.9630273954099793 0.9630273954099793 0.9421931117753988 0.9421931117753988 0.9421931117753988 0.9421931117753988 0.9110331971478605 
0.9110331971478605 0.9110331971478605 0.9110331971478605 0.8698729395321335 0.8698729395321335 0.8698729395321335 0.8698729395321335 0.8191465160345868 0.8191465160345868 
0.8191465160345868 0.8191465160345868 0.759415996826041 0.759415996826041 0.759415996826041 0.759415996826041 0.6914131530666161 0.6914131530666161 0.6914131530666161 
0.6914131530666161 0.6160797750209168 0.6160797750209168 0.6160797750209168 0.6160797750209168 0.5345624332651556 0.5345624332651556 0.5345624332651556 0.5345624332651556 
0.4481132750747401 0.4481132750747401 0.4481132750747401 0.4481132750747401 0.3578924232175317 0.3578924232175317 0.3578924232175317 0.3578924232175317 0.264740617387524 
0.264740617387524 0.264740617387524 0.264740617387524 0.1690504929300569 0.1690504929300569 0.1690504929300569 0.1690504929300569 0.07085424467226657 0.07085424467226657 
0.07085424467226657 0.07085424467226657 -0.02985323186197653 -0.02985323186197653 -0.02985323186197653 -0.02985323186197653 -0.1326778388921722 -0.1326778388921722 -0.1326778388921722 
-0.1326778388921722 -0.2364926852845722 -0.2364926852845722 -0.2364926852845722 -0.2364926852845722 -0.3393980171633253 -0.3393980171633253 -0.3393980171633253 -0.3393980171633253 
-0.4390211380989928 -0.4390211380989928 -0.4390211380989928 -0.4390211380989928 -0.5330226720544373 -0.5330226720544373 -0.5330226720544373 -0.5330226720544373 -0.6195697275499525 
-0.6195697275499525 -0.6195697275499525 -0.6195697275499525 -0.6975675357322669 -0.6975675357322669 -0.6975675357322669 -0.6975675357322669 -0.7665827969841482 -0.7665827969841482 
-0.7665827969841482 -0.7665827969841482 -0.82655162252662 -0.82655162252662 -0.82655162252662 -0.82655162252662 -0.877450801050507 -0.877450801050507 -0.877450801050507 
-0.877450801050507 -0.9190887294464301 -0.9190887294464301 -0.9190887294464301 -0.9190887294464301 -0.9510774732978639 -0.9510774732978639 -0.9510774732978639 -0.9510774732978639 
-0.9729344177101895 -0.9729344177101895 -0.9729344177101895 -0.9729344177101895 -0.9842319385667163 -0.9842319385667163 -0.9842319385667163 -0.9842319385667163 -0.9847218713289432 
-0.9847218713289432 -0.9847218713289432 -0.9847218713289432 -0.9743761243112968 -0.9743761243112968 -0.9743761243112968 -0.9743761243112968 -0.9532686527545337 -0.9532686527545337 
-0.9532686527545337 -0.9532686527545337 -0.9217382657013682 -0.9217382657013682 -0.9217382657013682 -0.9217382657013682 -0.8798726250409576 -0.8798726250409576 -0.8798726250409576 
-0.8798726250409576 -0.8293380286328238 -0.8293380286328238 -0.8293380286328238 -0.8293380286328238 -0.7657374540575531 -0.7657374540575531 -0.7657374540575531 -0.7657374540575531 
-0.7101497922471953 -0.7101497922471953 -0.7101497922471953 -0.7101497922471953 -0.5799708357996124 -0.5799708357996124 -0.5799708357996124 -0.5799708357996124 -0.4912170492794923 
-0.4912170492794923 -0.4912170492794923 -0.4912170492794923 -0.4355468287885167 -0.4355468287885167 -0.4355468287885167 -0.4355468287885167 -0.3500323783837769 -0.3500323783837769 
-0.3500323783837769 -0.3500323783837769 -0.2549189570488941 -0.2549189570488941 -0.2549189570488941 -0.2549189570488941 -0.1556818720322978 -0.1556818720322978 -0.1556818720322978 
-0.1556818720322978 -0.05442335971329761 -0.05442335971329761 -0.05442335971329761 -0.05442335971329761 0.04750690389529455 0.04750690389529455 0.04750690389529455 0.04750690389529455 
0.1489266480150287 0.1489266480150287 0.1489266480150287 0.1489266480150287 0.2487080713494992 0.2487080713494992 0.2487080713494992 0.2487080713494992 0.3457617707990156 
0.3457617707990156 0.3457617707990156 0.3457617707990156 0.439032988539439 0.439032988539439 0.439032988539439 0.439032988539439 0.5275031532793524 0.5275031532793524 
0.5275031532793524 0.5275031532793524 0.6102001126297116 0.6102001126297116 0.6102001126297116 0.6102001126297116 0.6862133348598785 0.6862133348598785 0.6862133348598785 
0.6862133348598785 0.7547075084404576 0.7547075084404576 0.7547075084404576 0.7547075084404576 0.8149318327967972 0.8149318327967972 0.8149318327967972 0.8149318327967972 
0.866226293520266 0.866226293520266 0.866226293520266 0.866226293520266 0.9080272312643853 0.9080272312643853 0.9080272312643853 0.9080272312643853 0.9398754556593865 
0.9398754556593865 0.9398754556593865 0.9398754556593865 0.9614194212520437 0.9614194212520437 0.9614194212520437 0.9614194212520437 0.9724172700053861 0.9724172700053861 
0.9724172700053861 0.9724172700053861 0.9727655253376211 0.9727655253376211 0.9727655253376211 0.9727655253376211 0.9624937196474326 0.9624937196474326 0.9624937196474326 
0.9624937196474326 0.941673843762457 0.941673843762457 0.941673843762457 0.941673843762457 0.9105335199172386 0.9105335199172386 0.9105335199172386 0.9105335199172386 
0.8693984568171866 0.8693984568171866 0.8693984568171866 0.8693984568171866 0.8187020300861805 0.8187020300861805 0.8187020300861805 0.8187020300861805 0.7590060881424465 
0.7590060881424465 0.7590060881424465 0.7590060881424465 0.6910420551925346 0.6910420551925346 0.6910420551925346 0.6910420551925346 0.6157508140339644 0.6157508140339644 
0.6157508140339644 0.6157508140339644 0.5342776519564167 0.5342776519564167 0.5342776519564167 0.5342776519564167 0.4478737389317602 0.4478737389317602 0.4478737389317602 
0.4478737389317602 0.3576992487148535 0.3576992487148535 0.3576992487148535 0.3576992487148535 0.2645961544366278 0.2645961544366278 0.2645961544366278 0.2645961544366278 
0.1689588058366474 0.1689588058366474 0.1689588058366474 0.1689588058366474 0.0708203257661536 0.0708203257661536 0.0708203257661536 0.0708203257661536 -0.02982529228964549 
-0.02982529228964549 -0.02982529228964549 -0.02982529228964549 -0.1325867477607517 -0.1325867477607517 -0.1325867477607517 -0.1325867477607517 -0.2363407603269683 -0.2363407603269683 
-0.2363407603269683 -0.2363407603269683 -0.3391903881510376 -0.3391903881510376 -0.3391903881510376 -0.3391903881510376 -0.4387638029161892 -0.4387638029161892 -0.4387638029161892 
-0.4387638029161892 -0.5327205630226535 -0.5327205630226535 -0.5327205630226535 -0.5327205630226535 -0.619225863139502 -0.619225863139502 -0.619225863139502 -0.619225863139502 
-0.6971835955790191 -0.6971835955790191 -0.6971835955790191 -0.6971835955790191 -0.7661605577951828 -0.7661605577951828 -0.7661605577951828 -0.7661605577951828 -0.8260942328099788 
-0.8260942328099788 -0.8260942328099788 -0.8260942328099788 -0.876963149251774 -0.876963149251774 -0.876963149251774 -0.876963149251774 -0.9185768437702473 -0.9185768437702473 
-0.9185768437702473 -0.9185768437702473 -0.9505474873988244 -0.9505474873988244 -0.9505474873988244 -0.9505474873988244 -0.9723928080866171 -0.9723928080866171 -0.9723928080866171 
-0.9723928080866171 -0.9836830674622152 -0.9836830674622152 -0.9836830674622152 -0.9836830674622152 -0.9841710221276725 -0.9841710221276725 -0.9841710221276725 -0.9841710221276725 
-0.9738359554846965 -0.9738359554846965 -0.9738359554846965 -0.9738359554846965 -0.9527433612819235 -0.9527433612819235 -0.9527433612819235 -0.9527433612819235 -0.9212327641248331 
-0.9212327641248331 -0.9212327641248331 -0.9212327641248331 -0.8793930766717245 -0.8793930766717245 -0.8793930766717245 -0.8793930766717245 -0.8288856074421418 -0.8288856074421418 
-0.8288856074421418 -0.8288856074421418 -0.7653314723215525 -0.7653314723215525 -0.7653314723215525 -0.7653314723215525 -0.7097362397117324 -0.7097362397117324 -0.7097362397117324 
-0.7097362397117324 -0.5796819450936582 -0.5796819450936582 -0.5796819450936582 -0.5796819450936582 -0.4858788377108522 -0.4858788377108522 -0.4858788377108522 -0.4858788377108522 
-0.4308183779526532 -0.4308183779526532 -0.4308183779526532 -0.4308183779526532 -0.3462301222413873 -0.3462301222413873 -0.3462301222413873 -0.3462301222413873 -0.2521428594480011 
-0.2521428594480011 -0.2521428594480011 -0.2521428594480011 -0.1539778991781447 -0.1539778991781447 -0.1539778991781447 -0.1539778991781447 -0.05381683885740954 -0.05381683885740954 
-0.05381683885740954 -0.05381683885740954 0.04700424911700672 0.04700424911700672 0.04700424911700672 0.04700424911700672 0.1473154295335105 0.1473154295335105 0.1473154295335105 
0.1473154295335105 0.2460013838498886 0.2460013838498886 0.2460013838498886 0.2460013838498886 0.3419857417976063 0.3419857417976063 0.3419857417976063 0.3419857417976063 
0.4342271494430073 0.4342271494430073 0.4342271494430073 0.4342271494430073 0.5217202033142496 0.5217202033142496 0.5217202033142496 0.5217202033142496 0.6035050355707434 
0.6035050355707434 0.6035050355707434 0.6035050355707434 0.6786820478710315 0.6786820478710315 0.6786820478710315 0.6786820478710315 0.7464253378117882 0.7464253378117882 
0.7464253378117882 0.7464253378117882 0.8059920279543881 0.8059920279543881 0.8059920279543881 0.8059920279543881 0.856728674755366 0.856728674755366 0.856728674755366 
0.856728674755366 0.8980769788066654 0.8980769788066654 0.8980769788066654 0.8980769788066654 0.9295815943318275 0.9295815943318275 0.9295815943318275 0.9295815943318275 
0.9508961192969534 0.9508961192969534 0.9508961192969534 0.9508961192969534 0.9617865751988353 0.9617865751988353 0.9617865751988353 0.9617865751988353 0.9621394300410847 
0.9621394300410847 0.9621394300410847 0.9621394300410847 0.9519648775453896 0.9519648775453896 0.9519648775453896 0.9519648775453896 0.9313711672242652 0.9313711672242652 
0.9313711672242652 0.9313711672242652 0.9005712300147315 0.9005712300147315 0.9005712300147315 0.9005712300147315 0.8598872013079639 0.8598872013079639 0.8598872013079639 
0.8598872013079639 0.8097467500110067 0.8097467500110067 0.8097467500110067 0.8097467500110067 0.7507058368586096 0.7507058368586096 0.7507058368586096 0.7507058368586096 
0.6834873854516312 0.6834873854516312 0.6834873854516312 0.6834873854516312 0.6090213830122215 0.6090213830122215 0.6090213830122215 0.6090213830122215 0.5284397030486039 
0.5284397030486039 0.5284397030486039 0.5284397030486039 0.4429794032140698 0.4429794032140698 0.4429794032140698 0.4429794032140698 0.3537885505563121 0.3537885505563121 
0.3537885505563121 0.3537885505563121 0.2617015769061942 0.2617015769061942 0.2617015769061942 0.2617015769061942 0.1671105310950786 0.1671105310950786 0.1671105310950786 
0.1671105310950786 0.07004931454768491 0.07004931454768491 0.07004931454768491 0.07004931454768491 -0.02948867982952344 -0.02948867982952344 -0.02948867982952344 -0.02948867982952344 
-0.1311188381355181 -0.1311188381355181 -0.1311188381355181 -0.1311188381355181 -0.2337331404002078 -0.2337331404002078 -0.2337331404002078 -0.2337331404002078 -0.3354573185789496 
-0.3354573185789496 -0.3354573185789496 -0.3354573185789496 -0.4339453156697275 -0.4339453156697275 -0.4339453156697275 -0.4339453156697275 -0.5268801932549986 -0.5268801932549986 
-0.5268801932549986 -0.5268801932549986 -0.612444432413641 -0.612444432413641 -0.612444432413641 -0.612444432413641 -0.6895519479016097 -0.6895519479016097 -0.6895519479016097 
-0.6895519479016097 -0.7577739861397701 -0.7577739861397701 -0.7577739861397701 -0.7577739861397701 -0.8170499388910586 -0.8170499388910586 -0.8170499388910586 -0.8170499388910586 
-0.8673603896480536 -0.8673603896480536 -0.8673603896480536 -0.8673603896480536 -0.9085183410819975 -0.9085183410819975 -0.9085183410819975 -0.9085183410819975 -0.940140207893807 
-0.940140207893807 -0.940140207893807 -0.940140207893807 -0.9617505578838231 -0.9617505578838231 -0.9617505578838231 -0.9617505578838231 -0.97292875608591 -0.97292875608591 
-0.97292875608591 -0.97292875608591 -0.9734199615182885 -0.9734199615182885 -0.9734199615182885 -0.9734199615182885 -0.963182195695739 -0.963182195695739 -0.963182195695739 
-0.963182195695739 -0.9423190265188914 -0.9423190265188914 -0.9423190265188914 -0.9423190265188914 -0.9111529367787286 -0.9111529367787286 -0.9111529367787286 -0.9111529367787286 
-0.8697727115475351 -0.8697727115475351 -0.8697727115475351 -0.8697727115475351 -0.8198171284400614 -0.8198171284400614 -0.8198171284400614 -0.8198171284400614 -0.7569666933959256 
-0.7569666933959256 -0.7569666933959256 -0.7569666933959256 -0.7019615172842506 -0.7019615172842506 -0.7019615172842506 -0.7019615172842506 -0.5733532839564008 -0.5733532839564008 
-0.5733532839564008 -0.5733532839564008 -0.4752629124570727 -0.4752629124570727 -0.4752629124570727 -0.4752629124570727 -0.4214126377174905 -0.4214126377174905 -0.4214126377174905 
-0.4214126377174905 -0.3386801838734535 -0.3386801838734535 -0.3386801838734535 -0.3386801838734535 -0.2466522183481244 -0.2466522183481244 -0.2466522183481244 -0.2466522183481244 
-0.1506311055663663 -0.1506311055663663 -0.1506311055663663 -0.1506311055663663 -0.05265380298680664 -0.05265380298680664 -0.05265380298680664 -0.05265380298680664 0.0459713877799053 
0.0459713877799053 0.0459713877799053 0.0459713877799053 0.1440978967864331 0.1440978967864331 0.1440978967864331 0.1440978967864331 0.2406323627460017 0.2406323627460017 
0.2406323627460017 0.2406323627460017 0.3345202869579481 0.3345202869579481 0.3345202869579481 0.3345202869579481 0.4247425969617238 0.4247425969617238 0.4247425969617238 
0.4247425969617238 0.5103165244348876 0.5103165244348876 0.5103165244348876 0.5103165244348876 0.590304663997574 0.590304663997574 0.590304663997574 0.590304663997574 
0.6638289337435449 0.6638289337435449 0.6638289337435449 0.6638289337435449 0.7300832702087083 0.7300832702087083 0.7300832702087083 0.7300832702087083 0.7883423865485925 
0.7883423865485925 0.7883423865485925 0.7883423865485925 0.8379678837803765 0.8379678837803765 0.8379678837803765 0.8379678837803765 0.8784138284663544 0.8784138284663544 
0.8784138284663544 0.8784138284663544 0.9092338464725419 0.9092338464725419 0.9092338464725419 0.9092338464725419 0.9300881576954847 0.9300881576954847 0.9300881576954847 
0.9300881576954847 0.9407472517803941 0.9407472517803941 0.9407472517803941 0.9407472517803941 0.9410990765737757 0.9410990765737757 0.9410990765737757 0.9410990765737757 
0.9311471555255231 0.9311471555255231 0.9311471555255231 0.9311471555255231 0.911000741306039 0.911000741306039 0.911000741306039 0.911000741306039 0.8808732263049668 
0.8808732263049668 0.8808732263049668 0.8808732263049668 0.8410784132059855 0.8410784132059855 0.8410784132059855 0.8410784132059855 0.7920354428478209 0.7920354428478209 
0.7920354428478209 0.7920354428478209 0.7342877539056764 0.7342877539056764 0.7342877539056764 0.7342877539056764 0.6685418961518796 0.6685418961518796 0.6685418961518796 
0.6685418961518796 0.5957065955861532 0.5957065955861532 0.5957065955861532 0.5957065955861532 0.5168879405375387 0.5168879405375387 0.5168879405375387 0.5168879405375387 
0.4332954443051148 0.4332954443051148 0.4332954443051148 0.4332954443051148 0.3460526440010114 0.3460526440010114 0.3460526440010114 0.3460526440010114 0.2559774180030594 
0.2559774180030594 0.2559774180030594 0.2559774180030594 0.1634553097759564 0.1634553097759564 0.1634553097759564 0.1634553097759564 0.06852069309252862 0.06852069309252862 
0.06852069309252862 0.06852069309252862 -0.02883349976888352 -0.02883349976888352 -0.02883349976888352 -0.02883349976888352 -0.1282334524420838 -0.1282334524420838 -0.1282334524420838 
-0.1282334524420838 -0.228598382387263 -0.228598382387263 -0.228598382387263 -0.228598382387263 -0.3280970040847053 -0.3280970040847053 -0.3280970040847053 -0.3280970040847053 
-0.4244344693369108 -0.4244344693369108 -0.4244344693369108 -0.4244344693369108 -0.5153424652053209 -0.5153424652053209 -0.5153424652053209 -0.5153424652053209 -0.5990404542049931 
-0.5990404542049931 -0.5990404542049931 -0.5990404542049931 -0.6744641087461793 -0.6744641087461793 -0.6744641087461793 -0.6744641087461793 -0.7411937065578613 -0.7411937065578613 
-0.7411937065578613 -0.7411937065578613 -0.7991711799145041 -0.7991711799145041 -0.7991711799145041 -0.7991711799145041 -0.8483794878852979 -0.8483794878852979 -0.8483794878852979 
-0.8483794878852979 -0.8886373887285302 -0.8886373887285302 -0.8886373887285302 -0.8886373887285302 -0.9195697805159894 -0.9195697805159894 -0.9195697805159894 -0.9195697805159894 
-0.9407112560769876 -0.9407112560769876 -0.9407112560769876 -0.9407112560769876 -0.9516496038871797 -0.9516496038871797 -0.9516496038871797 -0.9516496038871797 -0.9521350621780129 
-0.9521350621780129 -0.9521350621780129 -0.9521350621780129 -0.9421200991211355 -0.9421200991211355 -0.9421200991211355 -0.9421200991211355 -0.9217092538467377 -0.9217092538467377 
-0.9217092538467377 -0.9217092538467377 -0.89122331882996 -0.89122331882996 -0.89122331882996 -0.89122331882996 -0.8507479158374793 -0.8507479158374793 -0.8507479158374793 
-0.8507479158374793 -0.8018843947145858 -0.8018843947145858 -0.8018843947145858 -0.8018843947145858 -0.740413830638755 -0.740413830638755 -0.740413830638755 -0.740413830638755 
-0.6866058442766827 -0.6866058442766827 -0.6866058442766827 -0.6866058442766827 -0.5608157150627825 -0.5608157150627825 -0.5608157150627825 -0.5608157150627825 -0.4594512933422408 
-0.4594512933422408 -0.4594512933422408 -0.4594512933422408 -0.4073943033861203 -0.4073943033861203 -0.4073943033861203 -0.4073943033861203 -0.3274193209263357 -0.3274193209263357 
-0.3274193209263357 -0.3274193209263357 -0.2384595966191875 -0.2384595966191875 -0.2384595966191875 -0.2384595966191875 -0.145638841709038 -0.145638841709038 -0.145638841709038 
-0.145638841709038 -0.05092382207848612 -0.05092382207848612 -0.05092382207848612 -0.05092382207848612 0.04442195628000722 0.04442195628000722 0.04442195628000722 0.04442195628000722 
0.1392894442529551 0.1392894442529551 0.1392894442529551 0.1392894442529551 0.2326198008754081 0.2326198008754081 0.2326198008754081 0.2326198008754081 0.3233915987939411 
0.3233915987939411 0.3233915987939411 0.3233915987939411 0.4106178500575118 0.4106178500575118 0.4106178500575118 0.4106178500575118 0.4933470013812949 0.4933470013812949 
0.4933470013812949 0.4933470013812949 0.5706720829541185 0.5706720829541185 0.5706720829541185 0.5706720829541185 0.6417445978775898 0.6417445978775898 0.6417445978775898 
0.6417445978775898 0.7057867324637069 0.7057867324637069 0.7057867324637069 0.7057867324637069 0.7620993107693819 0.7620993107693819 0.7620993107693819 0.7620993107693819 
0.8100671604582341 0.8100671604582341 0.8100671604582341 0.8100671604582341 0.8491640834379035 0.8491640834379035 0.8491640834379035 0.8491640834379035 0.8789589529139932 