Title = Result/Linear_Advection_2D/FVM/MLP_u1_Least_Square/Sine_Wave_2D/Quad60/
FileType = Solution
Variables = q
Zone T = Result/Linear_Advection_2D/FVM/MLP_u1_Least_Square/Sine_Wave_2D/Quad60/
ZoneType = FETriangle
Nodes = 14400
Elements = 7200
DataPacking = Block
StrandID = 20
SolutionTime = 1.9
0.2486159501502797 0.2486159501502797 0.2486159501502797 0.2486159501502797 0.2670818477686713 0.2670818477686713 0.2670818477686713 0.2670818477686713 0.2916425090248714 0.2916425090248714 
0.2916425090248714 0.2916425090248714 0.314929852642617 0.314929852642617 0.314929852642617 0.314929852642617 0.3350383133783419 0.3350383133783419 0.3350383133783419 
0.3350383133783419 0.3514080014040368 0.3514080014040368 0.3514080014040368 0.3514080014040368 0.363834066221978 0.363834066221978 0.363834066221978 0.363834066221978 
0.3722262302082779 0.3722262302082779 0.3722262302082779 0.3722262302082779 0.376538706094552 0.376538706094552 0.376538706094552 0.376538706094552 0.3767703085233164 
0.3767703085233164 0.3767703085233164 0.3767703085233164 0.3729468709644648 0.3729468709644648 0.3729468709644648 0.3729468709644648 0.3650929532990991 0.3650929532990991 
0.3650929532990991 0.3650929532990991 0.3532837654615113 0.3532837654615113 0.3532837654615113 0.3532837654615113 0.3376290409480138 0.3376290409480138 0.3376290409480138 
0.3376290409480138 0.3182830329267868 0.3182830329267868 0.3182830329267868 0.3182830329267868 0.2954442970458681 0.2954442970458681 0.2954442970458681 0.2954442970458681 
0.2693572180158768 0.2693572180158768 0.2693572180158768 0.2693572180158768 0.2403074624495583 0.2403074624495583 0.2403074624495583 0.2403074624495583 0.2086166294066396 
0.2086166294066396 0.2086166294066396 0.2086166294066396 0.1746357656924317 0.1746357656924317 0.1746357656924317 0.1746357656924317 0.1387398129926382 0.1387398129926382 
0.1387398129926382 0.1387398129926382 0.1013232855191801 0.1013232855191801 0.1013232855191801 0.1013232855191801 0.06279659324857252 0.06279659324857252 0.06279659324857252 
0.06279659324857252 0.02358234787976688 0.02358234787976688 0.02358234787976688 0.02358234787976688 -0.01588875863643811 -0.01588875863643811 -0.01588875863643811 -0.01588875863643811 
-0.05518338077571595 -0.05518338077571595 -0.05518338077571595 -0.05518338077571595 -0.09387111554216357 -0.09387111554216357 -0.09387111554216357 -0.09387111554216357 -0.1315284110733034 
-0.1315284110733034 -0.1315284110733034 -0.1315284110733034 -0.167743998468769 -0.167743998468769 -0.167743998468769 -0.167743998468769 -0.2021222616978769 -0.2021222616978769 
-0.2021222616978769 -0.2021222616978769 -0.2342871528559788 -0.2342871528559788 -0.2342871528559788 -0.2342871528559788 -0.2638864186803548 -0.2638864186803548 -0.2638864186803548 
-0.2638864186803548 -0.2905953567376693 -0.2905953567376693 -0.2905953567376693 -0.2905953567376693 -0.3141208627046376 -0.3141208627046376 -0.3141208627046376 -0.3141208627046376 
-0.3342048995679119 -0.3342048995679119 -0.3342048995679119 -0.3342048995679119 -0.3506274205605198 -0.3506274205605198 -0.3506274205605198 -0.3506274205605198 -0.3632088875638428 
-0.3632088875638428 -0.3632088875638428 -0.3632088875638428 -0.3718103481560592 -0.3718103481560592 -0.3718103481560592 -0.3718103481560592 -0.3763309860394041 -0.3763309860394041 
-0.3763309860394041 -0.3763309860394041 -0.3767256289682928 -0.3767256289682928 -0.3767256289682928 -0.3767256289682928 -0.3730032579645317 -0.3730032579645317 -0.3730032579645317 
-0.3730032579645317 -0.3651893198230158 -0.3651893198230158 -0.3651893198230158 -0.3651893198230158 -0.3533786704037723 -0.3533786704037723 -0.3533786704037723 -0.3533786704037723 
-0.3377118142333742 -0.3377118142333742 -0.3377118142333742 -0.3377118142333742 -0.3183800398688696 -0.3183800398688696 -0.3183800398688696 -0.3183800398688696 -0.2956198661102106 
-0.2956198661102106 -0.2956198661102106 -0.2956198661102106 -0.2697107766014612 -0.2697107766014612 -0.2697107766014612 -0.2697107766014612 -0.2409661961687326 -0.2409661961687326 
-0.2409661961687326 -0.2409661961687326 -0.2097224813702009 -0.2097224813702009 -0.2097224813702009 -0.2097224813702009 -0.1763253350769042 -0.1763253350769042 -0.1763253350769042 
-0.1763253350769042 -0.1411172162923929 -0.1411172162923929 -0.1411172162923929 -0.1411172162923929 -0.104428568551521 -0.104428568551521 -0.104428568551521 -0.104428568551521 
-0.06657675474096265 -0.06657675474096265 -0.06657675474096265 -0.06657675474096265 -0.02786977126596623 -0.02786977126596623 -0.02786977126596623 -0.02786977126596623 0.01136312045126868 
0.01136312045126868 0.01136312045126868 0.01136312045126868 0.05083282689057568 0.05083282689057568 0.05083282689057568 0.05083282689057568 0.08988269917711544 0.08988269917711544 
0.08988269917711544 0.08988269917711544 0.1293522271168411 0.1293522271168411 0.1293522271168411 0.1293522271168411 0.1626756177223997 0.1626756177223997 0.1626756177223997 
0.1626756177223997 0.2180327945293439 0.2180327945293439 0.2180327945293439 0.2180327945293439 0.2871780227683264 0.2871780227683264 0.2871780227683264 0.2871780227683264 
0.3076396116424845 0.3076396116424845 0.3076396116424845 0.3076396116424845 0.3359095451295856 0.3359095451295856 0.3359095451295856 0.3359095451295856 0.3628997132837218 
0.3628997132837218 0.3628997132837218 0.3628997132837218 0.3862210218539204 0.3862210218539204 0.3862210218539204 0.3862210218539204 0.405181378924697 0.405181378924697 
0.405181378924697 0.405181378924697 0.419550073332252 0.419550073332252 0.419550073332252 0.419550073332252 0.4292392485763602 0.4292392485763602 0.4292392485763602 
0.4292392485763602 0.434216381860302 0.434216381860302 0.434216381860302 0.434216381860302 0.4344842164105622 0.4344842164105622 0.4344842164105622 0.4344842164105622 
0.4300686160059637 0.4300686160059637 0.4300686160059637 0.4300686160059637 0.4210155213182422 0.4210155213182422 0.4210155213182422 0.4210155213182422 0.4074030949616621 
0.4074030949616621 0.4074030949616621 0.4074030949616621 0.38935814645123 0.38935814645123 0.38935814645123 0.38935814645123 0.3670561778441271 0.3670561778441271 
0.3670561778441271 0.3670561778441271 0.340725965475504 0.340725965475504 0.340725965475504 0.340725965475504 0.3106487723346539 0.3106487723346539 0.3106487723346539 
0.3106487723346539 0.2771541402652569 0.2771541402652569 0.2771541402652569 0.2771541402652569 0.2406132559988307 0.2406132559988307 0.2406132559988307 0.2406132559988307 
0.2014314010529202 0.2014314010529202 0.2014314010529202 0.2014314010529202 0.1600412651153902 0.1600412651153902 0.1600412651153902 0.1600412651153902 0.1168976788927438 
0.1168976788927438 0.1168976788927438 0.1168976788927438 0.07247346662589338 0.07247346662589338 0.07247346662589338 0.07247346662589338 0.02725547835216149 0.02725547835216149 
0.02725547835216149 0.02725547835216149 -0.01826009923118176 -0.01826009923118176 -0.01826009923118176 -0.01826009923118176 -0.0635736199453738 -0.0635736199453738 -0.0635736199453738 
-0.0635736199453738 -0.1081878980996038 -0.1081878980996038 -0.1081878980996038 -0.1081878980996038 -0.1516145312637692 -0.1516145312637692 -0.1516145312637692 -0.1516145312637692 
-0.1933789012353817 -0.1933789012353817 -0.1933789012353817 -0.1933789012353817 -0.2330247576327641 -0.2330247576327641 -0.2330247576327641 -0.2330247576327641 -0.2701187530856168 
-0.2701187530856168 -0.2701187530856168 -0.2701187530856168 -0.3042546953274878 -0.3042546953274878 -0.3042546953274878 -0.3042546953274878 -0.3350582027751798 -0.3350582027751798 
-0.3350582027751798 -0.3350582027751798 -0.362191255093048 -0.362191255093048 -0.362191255093048 -0.362191255093048 -0.385356263139924 -0.385356263139924 -0.385356263139924 
-0.385356263139924 -0.4042994649006035 -0.4042994649006035 -0.4042994649006035 -0.4042994649006035 -0.4188134175993692 -0.4188134175993692 -0.4188134175993692 -0.4188134175993692 
-0.4287374079405889 -0.4287374079405889 -0.4287374079405889 -0.4287374079405889 -0.4339595901398985 -0.4339595901398985 -0.4339595901398985 -0.4339595901398985 -0.4344252021317447 
-0.4344252021317447 -0.4344252021317447 -0.4344252021317447 -0.4301331241182893 -0.4301331241182893 -0.4301331241182893 -0.4301331241182893 -0.421130552220259 -0.421130552220259 
-0.421130552220259 -0.421130552220259 -0.4075180331974602 -0.4075180331974602 -0.4075180331974602 -0.4075180331974602 -0.3894590923530342 -0.3894590923530342 -0.3894590923530342 
-0.3894590923530342 -0.3671726663284823 -0.3671726663284823 -0.3671726663284823 -0.3671726663284823 -0.3409318988472352 -0.3409318988472352 -0.3409318988472352 -0.3409318988472352 
-0.3110586608686147 -0.3110586608686147 -0.3110586608686147 -0.3110586608686147 -0.27791438799505 -0.27791438799505 -0.27791438799505 -0.27791438799505 -0.2418871288749173 
-0.2418871288749173 -0.2418871288749173 -0.2418871288749173 -0.2033760549852961 -0.2033760549852961 -0.2033760549852961 -0.2033760549852961 -0.1627768300291272 -0.1627768300291272 
-0.1627768300291272 -0.1627768300291272 -0.1204712605178066 -0.1204712605178066 -0.1204712605178066 -0.1204712605178066 -0.07682593562101128 -0.07682593562101128 -0.07682593562101128 
-0.07682593562101128 -0.03219551888768156 -0.03219551888768156 -0.03219551888768156 -0.03219551888768156 0.01303838288633431 0.01303838288633431 0.01303838288633431 0.01303838288633431 
0.05855562417210673 0.05855562417210673 0.05855562417210673 0.05855562417210673 0.1035451292971123 0.1035451292971123 0.1035451292971123 0.1035451292971123 0.1492189577202349 
0.1492189577202349 0.1492189577202349 0.1492189577202349 0.1870555756327484 0.1870555756327484 0.1870555756327484 0.1870555756327484 0.2520586683519814 0.2520586683519814 
0.2520586683519814 0.2520586683519814 0.3412930308280949 0.3412930308280949 0.3412930308280949 0.3412930308280949 0.365753620078521 0.365753620078521 0.365753620078521 
0.365753620078521 0.3991336645443192 0.3991336645443192 0.3991336645443192 0.3991336645443192 0.4310859383234669 0.4310859383234669 0.4310859383234669 0.4310859383234669 
0.4587840994372119 0.4587840994372119 0.4587840994372119 0.4587840994372119 0.4813531606206655 0.4813531606206655 0.4813531606206655 0.4813531606206655 0.4984761277095329 
0.4984761277095329 0.4984761277095329 0.4984761277095329 0.5100288313696828 0.5100288313696828 0.5100288313696828 0.5100288313696828 0.5159698347547695 0.5159698347547695 
0.5159698347547695 0.5159698347547695 0.516303552006695 0.516303552006695 0.516303552006695 0.516303552006695 0.5110642389535469 0.5110642389535469 0.5110642389535469 
0.5110642389535469 0.5003111098665431 0.5003111098665431 0.5003111098665431 0.5003111098665431 0.4841425298341367 0.4841425298341367 0.4841425298341367 0.4841425298341367 
0.462707469873223 0.462707469873223 0.462707469873223 0.462707469873223 0.4362139513474201 0.4362139513474201 0.4362139513474201 0.4362139513474201 0.404933305672925 
0.404933305672925 0.404933305672925 0.404933305672925 0.3691992468777712 0.3691992468777712 0.3691992468777712 0.3691992468777712 0.3294032401263567 0.3294032401263567 
0.3294032401263567 0.3294032401263567 0.2859864410996904 0.2859864410996904 0.2859864410996904 0.2859864410996904 0.2394307576433839 0.2394307576433839 0.2394307576433839 
0.2394307576433839 0.1902506577124427 0.1902506577124427 0.1902506577124427 0.1902506577124427 0.1389866790655462 0.1389866790655462 0.1389866790655462 0.1389866790655462 
0.08620042150554905 0.08620042150554905 0.08620042150554905 0.08620042150554905 0.03246996685385289 0.03246996685385289 0.03246996685385289 0.03246996685385289 -0.02161548158831476 
-0.02161548158831476 -0.02161548158831476 -0.02161548158831476 -0.07546213157446172 -0.07546213157446172 -0.07546213157446172 -0.07546213157446172 -0.1284790932905001 -0.1284790932905001 
-0.1284790932905001 -0.1284790932905001 -0.1800855869819956 -0.1800855869819956 -0.1800855869819956 -0.1800855869819956 -0.2297173502503914 -0.2297173502503914 -0.2297173502503914 
-0.2297173502503914 -0.2768322738468139 -0.2768322738468139 -0.2768322738468139 -0.2768322738468139 -0.3209154115693799 -0.3209154115693799 -0.3209154115693799 -0.3209154115693799 
-0.3614841661136554 -0.3614841661136554 -0.3614841661136554 -0.3614841661136554 -0.398093715936517 -0.398093715936517 -0.398093715936517 -0.398093715936517 -0.4303423669706162 
-0.4303423669706162 -0.4303423669706162 -0.4303423669706162 -0.4578764411122123 -0.4578764411122123 -0.4578764411122123 -0.4578764411122123 -0.4803942015354755 -0.4803942015354755 
-0.4803942015354755 -0.4803942015354755 -0.4976486778588646 -0.4976486778588646 -0.4976486778588646 -0.4976486778588646 -0.509449348640838 -0.509449348640838 -0.509449348640838 
-0.509449348640838 -0.5156649061189847 -0.5156649061189847 -0.5156649061189847 -0.5156649061189847 -0.516228592932213 -0.516228592932213 -0.516228592932213 -0.516228592932213 
-0.5111374256536324 -0.5111374256536324 -0.5111374256536324 -0.5111374256536324 -0.500447672520973 -0.500447672520973 -0.500447672520973 -0.500447672520973 -0.4842823128276089 
-0.4842823128276089 -0.4842823128276089 -0.4842823128276089 -0.4628330190460508 -0.4628330190460508 -0.4628330190460508 -0.4628330190460508 -0.4363593227903291 -0.4363593227903291 
-0.4363593227903291 -0.4363593227903291 -0.4051854751663956 -0.4051854751663956 -0.4051854751663956 -0.4051854751663956 -0.3696934991385813 -0.3696934991385813 -0.3696934991385813 
-0.3696934991385813 -0.3303126631874971 -0.3303126631874971 -0.3303126631874971 -0.3303126631874971 -0.2875040000091394 -0.2875040000091394 -0.2875040000091394 -0.2875040000091394 
-0.2417421681519426 -0.2417421681519426 -0.2417421681519426 -0.2417421681519426 -0.1934980280116702 -0.1934980280116702 -0.1934980280116702 -0.1934980280116702 -0.1432262131860816 
-0.1432262131860816 -0.1432262131860816 -0.1432262131860816 -0.09136323353458488 -0.09136323353458488 -0.09136323353458488 -0.09136323353458488 -0.03833112973953762 -0.03833112973953762 
-0.03833112973953762 -0.03833112973953762 0.01541685841631737 0.01541685841631737 0.01541685841631737 0.01541685841631737 0.06949981070037962 0.06949981070037962 0.06949981070037962 
0.06949981070037962 0.122961981983686 0.122961981983686 0.122961981983686 0.122961981983686 0.1772053608474563 0.1772053608474563 0.1772053608474563 0.1772053608474563 
0.2223142230182562 0.2223142230182562 0.2223142230182562 0.2223142230182562 0.2992824292132551 0.2992824292132551 0.2992824292132551 0.2992824292132551 0.3956135664335153 
0.3956135664335153 0.3956135664335153 0.3956135664335153 0.4241537432931851 0.4241537432931851 0.4241537432931851 0.4241537432931851 0.4629140070335176 0.4629140070335176 
0.4629140070335176 0.4629140070335176 0.499904334177121 0.499904334177121 0.499904334177121 0.499904334177121 0.5319567144113522 0.5319567144113522 0.5319567144113522 
0.5319567144113522 0.5580943154668256 0.5580943154668256 0.5580943154668256 0.5580943154668256 0.577948600375138 0.577948600375138 0.577948600375138 0.577948600375138 
0.591362321416064 0.591362321416064 0.591362321416064 0.591362321416064 0.5982755418073806 0.5982755418073806 0.5982755418073806 0.5982755418073806 0.598684998035824 
0.598684998035824 0.598684998035824 0.598684998035824 0.5926258151236098 0.5926258151236098 0.5926258151236098 0.5926258151236098 0.5801689340345001 0.5801689340345001 
0.5801689340345001 0.5801689340345001 0.5614301407280644 0.5614301407280644 0.5614301407280644 0.5614301407280644 0.5365829392532726 0.5365829392532726 0.5365829392532726 
0.5365829392532726 0.5058691007856845 0.5058691007856845 0.5058691007856845 0.5058691007856845 0.4696033140972297 0.4696033140972297 0.4696033140972297 0.4696033140972297 
0.428172739137362 0.428172739137362 0.428172739137362 0.428172739137362 0.3820313003393714 0.3820313003393714 0.3820313003393714 0.3820313003393714 0.3316905446967121 
0.3316905446967121 0.3316905446967121 0.3316905446967121 0.2777093527821008 0.2777093527821008 0.2777093527821008 0.2777093527821008 0.220684410584188 0.220684410584188 
0.220684410584188 0.220684410584188 0.1612425791065505 0.1612425791065505 0.1612425791065505 0.1612425791065505 0.1000349890592641 0.1000349890592641 0.1000349890592641 
0.1000349890592641 0.03773173597938406 0.03773173597938406 0.03773173597938406 0.03773173597938406 -0.02498417600740373 -0.02498417600740373 -0.02498417600740373 -0.02498417600740373 
-0.08742434328300008 -0.08742434328300008 -0.08742434328300008 -0.08742434328300008 -0.1489034860900297 -0.1489034860900297 -0.1489034860900297 -0.1489034860900297 -0.2087479478751727 
-0.2087479478751727 -0.2087479478751727 -0.2087479478751727 -0.266303303156965 -0.266303303156965 -0.266303303156965 -0.266303303156965 -0.320940818280857 -0.320940818280857 
-0.320940818280857 -0.320940818280857 -0.3720633561943645 -0.3720633561943645 -0.3720633561943645 -0.3720633561943645 -0.419111345142287 -0.419111345142287 -0.419111345142287 
-0.419111345142287 -0.4615689839070372 -0.4615689839070372 -0.4615689839070372 -0.4615689839070372 -0.4989704530960307 -0.4989704530960307 -0.4989704530960307 -0.4989704530960307 
-0.5309055432508949 -0.5309055432508949 -0.5309055432508949 -0.5309055432508949 -0.5570241631045151 -0.5570241631045151 -0.5570241631045151 -0.5570241631045151 -0.5770396788060316 
-0.5770396788060316 -0.5770396788060316 -0.5770396788060316 -0.590731504399156 -0.590731504399156 -0.590731504399156 -0.590731504399156 -0.597948332310002 -0.597948332310002 
-0.597948332310002 -0.597948332310002 -0.5986119406648578 -0.5986119406648578 -0.5986119406648578 -0.5986119406648578 -0.5927167357006495 -0.5927167357006495 -0.5927167357006495 
-0.5927167357006495 -0.5803299310448026 -0.5803299310448026 -0.5803299310448026 -0.5803299310448026 -0.5615944998985049 -0.5615944998985049 -0.5615944998985049 -0.5615944998985049 
-0.5367319783408062 -0.5367319783408062 -0.5367319783408062 -0.5367319783408062 -0.5060427732289426 -0.5060427732289426 -0.5060427732289426 -0.5060427732289426 -0.469902154846438 
-0.469902154846438 -0.469902154846438 -0.469902154846438 -0.4287528110724201 -0.4287528110724201 -0.4287528110724201 -0.4287528110724201 -0.3830922110983999 -0.3830922110983999 
-0.3830922110983999 -0.3830922110983999 -0.3334548423948952 -0.3334548423948952 -0.3334548423948952 -0.3334548423948952 -0.2803913082304066 -0.2803913082304066 -0.2803913082304066 
-0.2803913082304066 -0.2244481485236902 -0.2244481485236902 -0.2244481485236902 -0.2244481485236902 -0.1661533485129144 -0.1661533485129144 -0.1661533485129144 -0.1661533485129144 
-0.1060139103614788 -0.1060139103614788 -0.1060139103614788 -0.1060139103614788 -0.04451988156242221 -0.04451988156242221 -0.04451988156242221 -0.04451988156242221 0.0178032579126262 
0.0178032579126262 0.0178032579126262 0.0178032579126262 0.0805128453262087 0.0805128453262087 0.0805128453262087 0.0805128453262087 0.142509107956931 0.142509107956931 
0.142509107956931 0.142509107956931 0.2053786011216717 0.2053786011216717 0.2053786011216717 0.2053786011216717 0.2578218930897112 0.2578218930897112 0.2578218930897112 
0.2578218930897112 0.3468162526946681 0.3468162526946681 0.3468162526946681 0.3468162526946681 0.4460294115685269 0.4460294115685269 0.4460294115685269 0.4460294115685269 
0.4782684264925679 0.4782684264925679 0.4782684264925679 0.4782684264925679 0.5220600920738729 0.5220600920738729 0.5220600920738729 0.5220600920738729 0.5638082820947335 
0.5638082820947335 0.5638082820947335 0.5638082820947335 0.5999418466233903 0.5999418466233903 0.5999418466233903 0.5999418466233903 0.6293887463924549 0.6293887463924549 
0.6293887463924549 0.6293887463924549 0.6517552280033816 0.6517552280033816 0.6517552280033816 0.6517552280033816 0.6668728447171479 0.6668728447171479 0.6668728447171479 
0.6668728447171479 0.6746734990825369 0.6746734990825369 0.6746734990825369 0.6746734990825369 0.6751478032229109 0.6751478032229109 0.6751478032229109 0.6751478032229109 
0.6683298116194722 0.6683298116194722 0.6683298116194722 0.6683298116194722 0.6542963263374213 0.6542963263374213 0.6542963263374213 0.6542963263374213 0.6331764900889 
0.6331764900889 0.6331764900889 0.6331764900889 0.6051655752772651 0.6051655752772651 0.6051655752772651 0.6051655752772651 0.5705361324401761 0.5705361324401761 
0.5705361324401761 0.5705361324401761 0.529643576474514 0.529643576474514 0.529643576474514 0.529643576474514 0.4829251843825009 0.4829251843825009 0.4829251843825009 
0.4829251843825009 0.4308933415851815 0.4308933415851815 0.4308933415851815 0.4308933415851815 0.3741252079292279 0.3741252079292279 0.3741252079292279 0.3741252079292279 
0.3132511481781301 0.3132511481781301 0.3132511481781301 0.3132511481781301 0.2489440943707559 0.2489440943707559 0.2489440943707559 0.2489440943707559 0.1819109617308852 
0.1819109617308852 0.1819109617308852 0.1819109617308852 0.1128859698330199 0.1128859698330199 0.1128859698330199 0.1128859698330199 0.04262465804922026 0.04262465804922026 
0.04262465804922026 0.04262465804922026 -0.02810289688223658 -0.02810289688223658 -0.02810289688223658 -0.02810289688223658 -0.09852045062581666 -0.09852045062581666 -0.09852045062581666 
-0.09852045062581666 -0.167855169547102 -0.167855169547102 -0.167855169547102 -0.167855169547102 -0.235347252186865 -0.235347252186865 -0.235347252186865 -0.235347252186865 
-0.3002585343269075 -0.3002585343269075 -0.3002585343269075 -0.3002585343269075 -0.3618798612666814 -0.3618798612666814 -0.3618798612666814 -0.3618798612666814 -0.4195377702799132 
-0.4195377702799132 -0.4195377702799132 -0.4195377702799132 -0.4726011831378553 -0.4726011831378553 -0.4726011831378553 -0.4726011831378553 -0.5204883946944573 -0.5204883946944573 
-0.5204883946944573 -0.5204883946944573 -0.562674040699021 -0.562674040699021 -0.562674040699021 -0.562674040699021 -0.5986953978649816 -0.5986953978649816 -0.5986953978649816 
-0.5986953978649816 -0.628157478435614 -0.628157478435614 -0.628157478435614 -0.628157478435614 -0.6507369192590122 -0.6507369192590122 -0.6507369192590122 -0.6507369192590122 
-0.6661852316254206 -0.6661852316254206 -0.6661852316254206 -0.6661852316254206 -0.6743322186908935 -0.6743322186908935 -0.6743322186908935 -0.6743322186908935 -0.6750889039874268 
-0.6750889039874268 -0.6750889039874268 -0.6750889039874268 -0.6684484904212981 -0.6684484904212981 -0.6684484904212981 -0.6684484904212981 -0.6544871627752494 -0.6544871627752494 
-0.6544871627752494 -0.6544871627752494 -0.6333664829833172 -0.6333664829833172 -0.6333664829833172 -0.6333664829833172 -0.6053362136601865 -0.6053362136601865 -0.6053362136601865 
-0.6053362136601865 -0.5707343969589029 -0.5707343969589029 -0.5707343969589029 -0.5707343969589029 -0.529983746770859 -0.529983746770859 -0.529983746770859 -0.529983746770859 
-0.4835831865813121 -0.4835831865813121 -0.4835831865813121 -0.4835831865813121 -0.4320935151181125 -0.4320935151181125 -0.4320935151181125 -0.4320935151181125 -0.3761174762596161 
-0.3761174762596161 -0.3761174762596161 -0.3761174762596161 -0.3162762146031793 -0.3162762146031793 -0.3162762146031793 -0.3162762146031793 -0.2531865610194119 -0.2531865610194119 
-0.2531865610194119 -0.2531865610194119 -0.1874446086329555 -0.1874446086329555 -0.1874446086329555 -0.1874446086329555 -0.1196227820673659 -0.1196227820673659 -0.1196227820673659 
-0.1196227820673659 -0.05027422961611699 -0.05027422961611699 -0.05027422961611699 -0.05027422961611699 0.02000869540658516 0.02000869540658516 0.02000869540658516 0.02000869540658516 
0.09072573498742048 0.09072573498742048 0.09072573498742048 0.09072573498742048 0.1606449239034146 0.1606449239034146 0.1606449239034146 0.1606449239034146 0.2315230001016039 
0.2315230001016039 0.2315230001016039 0.2315230001016039 0.2907393982395163 0.2907393982395163 0.2907393982395163 0.2907393982395163 0.390999932370105 0.390999932370105 
0.390999932370105 0.390999932370105 0.4911545561084212 0.4911545561084212 0.4911545561084212 0.4911545561084212 0.52666206536063 0.52666206536063 0.52666206536063 
0.52666206536063 0.57492383120589 0.57492383120589 0.57492383120589 0.57492383120589 0.6209427576379607 0.6209427576379607 0.6209427576379607 0.6209427576379607 
0.6607607948987838 0.6607607948987838 0.6607607948987838 0.6607607948987838 0.6931923663336536 0.6931923663336536 0.6931923663336536 0.6931923663336536 0.7178125844355843 
0.7178125844355843 0.7178125844355843 0.7178125844355843 0.7344474407001458 0.7344474407001458 0.7344474407001458 0.7344474407001458 0.7430298127409555 0.7430298127409555 
0.7430298127409555 0.7430298127409555 0.7435517669443195 0.7435517669443195 0.7435517669443195 0.7435517669443195 0.7360494151003962 0.7360494151003962 0.7360494151003962 
0.7360494151003962 0.7206045531254091 0.7206045531254091 0.7206045531254091 0.7206045531254091 0.6973566608623076 0.6973566608623076 0.6973566608623076 0.6973566608623076 
0.6665184614275016 0.6665184614275016 0.6665184614275016 0.6665184614275016 0.6283888014301245 0.6283888014301245 0.6283888014301245 0.6283888014301245 0.5833588799863627 
0.5833588799863627 0.5833588799863627 0.5833588799863627 0.5319107395077125 0.5319107395077125 0.5319107395077125 0.5319107395077125 0.4746094028032093 0.4746094028032093 
0.4746094028032093 0.4746094028032093 0.4120911070232375 0.4120911070232375 0.4120911070232375 0.4120911070232375 0.3450504475345595 0.3450504475345595 0.3450504475345595 
0.3450504475345595 0.2742286876140383 0.2742286876140383 0.2742286876140383 0.2742286876140383 0.2004043653595433 0.2004043653595433 0.2004043653595433 0.2004043653595433 
0.1243859903592153 0.1243859903592153 0.1243859903592153 0.1243859903592153 0.04700549412258846 0.04700549412258846 0.04700549412258846 0.04700549412258846 -0.0308891840847928 
-0.0308891840847928 -0.0308891840847928 -0.0308891840847928 -0.1084432552310332 -0.1084432552310332 -0.1084432552310332 -0.1084432552310332 -0.1848055933175635 -0.1848055933175635 
-0.1848055933175635 -0.1848055933175635 -0.2591393353552014 -0.2591393353552014 -0.2591393353552014 -0.2591393353552014 -0.3306314094741762 -0.3306314094741762 -0.3306314094741762 
-0.3306314094741762 -0.3985007031353017 -0.3985007031353017 -0.3985007031353017 -0.3985007031353017 -0.4620054417486925 -0.4620054417486925 -0.4620054417486925 -0.4620054417486925 
-0.520450563057812 -0.520450563057812 -0.520450563057812 -0.520450563057812 -0.5731953948084112 -0.5731953948084112 -0.5731953948084112 -0.5731953948084112 -0.6196612882286874 
-0.6196612882286874 -0.6196612882286874 -0.6196612882286874 -0.6593385223814423 -0.6593385223814423 -0.6593385223814423 -0.6593385223814423 -0.6917919461888271 -0.6917919461888271 
-0.6917919461888271 -0.6917919461888271 -0.7166653853631916 -0.7166653853631916 -0.7166653853631916 -0.7166653853631916 -0.7336853509514467 -0.7336853509514467 -0.7336853509514467 
-0.7336853509514467 -0.7426645423467547 -0.7426645423467547 -0.7426645423467547 -0.7426645423467547 -0.7435046453303149 -0.7435046453303149 -0.7435046453303149 -0.7435046453303149 
-0.736197863644848 -0.736197863644848 -0.736197863644848 -0.736197863644848 -0.7208282317574063 -0.7208282317574063 -0.7208282317574063 -0.7208282317574063 -0.6975739999997974 
-0.6975739999997974 -0.6975739999997974 -0.6975739999997974 -0.666710027342528 -0.666710027342528 -0.666710027342528 -0.666710027342528 -0.6286081309572394 -0.6286081309572394 
-0.6286081309572394 -0.6286081309572394 -0.5837334397514904 -0.5837334397514904 -0.5837334397514904 -0.5837334397514904 -0.5326351411864134 -0.5326351411864134 -0.5326351411864134 
-0.5326351411864134 -0.4759307752704798 -0.4759307752704798 -0.4759307752704798 -0.4759307752704798 -0.4142842435368693 -0.4142842435368693 -0.4142842435368693 -0.4142842435368693 
-0.3483799035463605 -0.3483799035463605 -0.3483799035463605 -0.3483799035463605 -0.2788975479908674 -0.2788975479908674 -0.2788975479908674 -0.2788975479908674 -0.2064942306296781 
-0.2064942306296781 -0.2064942306296781 -0.2064942306296781 -0.1318008694597132 -0.1318008694597132 -0.1318008694597132 -0.1318008694597132 -0.05542695291993673 -0.05542695291993673 
-0.05542695291993673 -0.05542695291993673 0.02197552292608958 0.02197552292608958 0.02197552292608958 0.02197552292608958 0.09985508369268867 0.09985508369268867 0.09985508369268867 
0.09985508369268867 0.1768608703804266 0.1768608703804266 0.1768608703804266 0.1768608703804266 0.2549088867313572 0.2549088867313572 0.2549088867313572 0.2549088867313572 
0.3201555123363068 0.3201555123363068 0.3201555123363068 0.3201555123363068 0.4305580075569624 0.4305580075569624 0.4305580075569624 0.4305580075569624 0.5304102688329954 
0.5304102688329954 0.5304102688329954 0.5304102688329954 0.5687535855104995 0.5687535855104995 0.5687535855104995 0.5687535855104995 0.6208819923313139 0.6208819923313139 
0.6208819923313139 0.6208819923313139 0.6706018885774903 0.6706018885774903 0.6706018885774903 0.6706018885774903 0.7136283535195107 0.7136283535195107 0.7136283535195107 
0.7136283535195107 0.7486697856149692 0.7486697856149692 0.7486697856149692 0.7486697856149692 0.7752631280506118 0.7752631280506118 0.7752631280506118 0.7752631280506118 
0.7932232500111129 0.7932232500111129 0.7932232500111129 0.7932232500111129 0.8024835548818212 0.8024835548818212 0.8024835548818212 0.8024835548818212 0.803040717740272 
0.803040717740272 0.803040717740272 0.803040717740272 0.7949365716837586 0.7949365716837586 0.7949365716837586 0.7949365716837586 0.7782598435287764 0.7782598435287764 
0.7782598435287764 0.7782598435287764 0.7531597103599635 0.7531597103599635 0.7531597103599635 0.7531597103599635 0.7198636100086775 0.7198636100086775 0.7198636100086775 
0.7198636100086775 0.6786921893391621 0.6786921893391621 0.6786921893391621 0.6786921893391621 0.6300666528688093 0.6300666528688093 0.6300666528688093 0.6300666528688093 
0.5745072773871698 0.5745072773871698 0.5745072773871698 0.5745072773871698 0.5126246114041997 0.5126246114041997 0.5126246114041997 0.5126246114041997 0.4451063694086156 