Title = Result/Linear_Advection_2D/FVM/MLP_u1_Least_Square/Sine_Wave_2D/Quad60/
FileType = Solution
Variables = q
Zone T = Result/Linear_Advection_2D/FVM/MLP_u1_Least_Square/Sine_Wave_2D/Quad60/
ZoneType = FETriangle
Nodes = 14400
Elements = 7200
DataPacking = Block
StrandID = 21
SolutionTime = 2
0.00634968654746523 0.00634968654746523 0.00634968654746523 0.00634968654746523 0.01208093882238008 0.01208093882238008 0.01208093882238008 0.01208093882238008 0.01984002020861597 0.01984002020861597 
0.01984002020861597 0.01984002020861597 0.02764566326820388 0.02764566326820388 0.02764566326820388 0.02764566326820388 0.03539982876247374 0.03539982876247374 0.03539982876247374 
0.03539982876247374 0.04283030082417306 0.04283030082417306 0.04283030082417306 0.04283030082417306 0.04980688138291225 0.04980688138291225 0.04980688138291225 0.04980688138291225 
0.05622651780480593 0.05622651780480593 0.05622651780480593 0.05622651780480593 0.06200578185380474 0.06200578185380474 0.06200578185380474 0.06200578185380474 0.06707426261644903 
0.06707426261644903 0.06707426261644903 0.06707426261644903 0.07137434628701145 0.07137434628701145 0.07137434628701145 0.07137434628701145 0.07486269722545591 0.07486269722545591 
0.07486269722545591 0.07486269722545591 0.07750917103420038 0.07750917103420038 0.07750917103420038 0.07750917103420038 0.07929177946878566 0.07929177946878566 0.07929177946878566 
0.07929177946878566 0.08019682660018881 0.08019682660018881 0.08019682660018881 0.08019682660018881 0.08023729338606429 0.08023729338606429 0.08023729338606429 0.08023729338606429 
0.07941819847571528 0.07941819847571528 0.07941819847571528 0.07941819847571528 0.07773474471961574 0.07773474471961574 0.07773474471961574 0.07773474471961574 0.07520132862197752 
0.07520132862197752 0.07520132862197752 0.07520132862197752 0.07184660824638089 0.07184660824638089 0.07184660824638089 0.07184660824638089 0.06770636257154845 0.06770636257154845 
0.06770636257154845 0.06770636257154845 0.06282467889837851 0.06282467889837851 0.06282467889837851 0.06282467889837851 0.05725324472254504 0.05725324472254504 0.05725324472254504 
0.05725324472254504 0.0510524105706931 0.0510524105706931 0.0510524105706931 0.0510524105706931 0.04428801636473957 0.04428801636473957 0.04428801636473957 0.04428801636473957 
0.03703417799530198 0.03703417799530198 0.03703417799530198 0.03703417799530198 0.02937964654849846 0.02937964654849846 0.02937964654849846 0.02937964654849846 0.02139601312752502 
0.02139601312752502 0.02139601312752502 0.02139601312752502 0.01315536055880652 0.01315536055880652 0.01315536055880652 0.01315536055880652 0.00478446494530523 0.00478446494530523 
0.00478446494530523 0.00478446494530523 -0.003583372292454885 -0.003583372292454885 -0.003583372292454885 -0.003583372292454885 -0.01255870924926878 -0.01255870924926878 -0.01255870924926878 
-0.01255870924926878 -0.02023389009741944 -0.02023389009741944 -0.02023389009741944 -0.02023389009741944 -0.0282248447878222 -0.0282248447878222 -0.0282248447878222 -0.0282248447878222 
-0.03593166571225501 -0.03593166571225501 -0.03593166571225501 -0.03593166571225501 -0.04324290537746302 -0.04324290537746302 -0.04324290537746302 -0.04324290537746302 -0.05007668414372144 
-0.05007668414372144 -0.05007668414372144 -0.05007668414372144 -0.05636263198853159 -0.05636263198853159 -0.05636263198853159 -0.05636263198853159 -0.06203240141754023 -0.06203240141754023 
-0.06203240141754023 -0.06203240141754023 -0.06702311343909551 -0.06702311343909551 -0.06702311343909551 -0.06702311343909551 -0.07127991562979422 -0.07127991562979422 -0.07127991562979422 
-0.07127991562979422 -0.07475639816971552 -0.07475639816971552 -0.07475639816971552 -0.07475639816971552 -0.07741446286138567 -0.07741446286138567 -0.07741446286138567 -0.07741446286138567 
-0.07922184280770636 -0.07922184280770636 -0.07922184280770636 -0.07922184280770636 -0.08015385981652073 -0.08015385981652073 -0.08015385981652073 -0.08015385981652073 -0.08021590836317562 
-0.08021590836317562 -0.08021590836317562 -0.08021590836317562 -0.0794103844274516 -0.0794103844274516 -0.0794103844274516 -0.0794103844274516 -0.07773224978631088 -0.07773224978631088 
-0.07773224978631088 -0.07773224978631088 -0.07519790009138089 -0.07519790009138089 -0.07519790009138089 -0.07519790009138089 -0.07184172083751665 -0.07184172083751665 -0.07184172083751665 
-0.07184172083751665 -0.06770644463088539 -0.06770644463088539 -0.06770644463088539 -0.06770644463088539 -0.06284451061691078 -0.06284451061691078 -0.06284451061691078 -0.06284451061691078 
-0.05731603322885754 -0.05731603322885754 -0.05731603322885754 -0.05731603322885754 -0.05118914226556677 -0.05118914226556677 -0.05118914226556677 -0.05118914226556677 -0.04453504993779592 
-0.04453504993779592 -0.04453504993779592 -0.04453504993779592 -0.03741292491687832 -0.03741292491687832 -0.03741292491687832 -0.03741292491687832 -0.0299667243965263 -0.0299667243965263 
-0.0299667243965263 -0.0299667243965263 -0.02197765501383639 -0.02197765501383639 -0.02197765501383639 -0.02197765501383639 -0.01475287463018716 -0.01475287463018716 -0.01475287463018716 
-0.01475287463018716 -0.001923814676838161 -0.001923814676838161 -0.001923814676838161 -0.001923814676838161 0.01198644709108912 0.01198644709108912 0.01198644709108912 0.01198644709108912 
0.02048879959933001 0.02048879959933001 0.02048879959933001 0.02048879959933001 0.03377675719812055 0.03377675719812055 0.03377675719812055 0.03377675719812055 0.04791643684528726 
0.04791643684528726 0.04791643684528726 0.04791643684528726 0.06182167658215065 0.06182167658215065 0.06182167658215065 0.06182167658215065 0.07509933852700744 0.07509933852700744 
0.07509933852700744 0.07509933852700744 0.08752411888750755 0.08752411888750755 0.08752411888750755 0.08752411888750755 0.0989293849244674 0.0989293849244674 0.0989293849244674 
0.0989293849244674 0.1091786919905362 0.1091786919905362 0.1091786919905362 0.1091786919905362 0.1181548243361387 0.1181548243361387 0.1181548243361387 0.1181548243361387 
0.1257625466756041 0.1257625466756041 0.1257625466756041 0.1257625466756041 0.131929955964898 0.131929955964898 0.131929955964898 0.131929955964898 0.1366080591845048 
0.1366080591845048 0.1366080591845048 0.1366080591845048 0.1397656724429594 0.1397656724429594 0.1397656724429594 0.1397656724429594 0.1413850741693838 0.1413850741693838 
0.1413850741693838 0.1413850741693838 0.1414673322038563 0.1414673322038563 0.1414673322038563 0.1414673322038563 0.1400215690010642 0.1400215690010642 0.1400215690010642 
0.1400215690010642 0.1370630197587626 0.1370630197587626 0.1370630197587626 0.1370630197587626 0.1326163527420169 0.1326163527420169 0.1326163527420169 0.1326163527420169 
0.1267249123153626 0.1267249123153626 0.1267249123153626 0.1267249123153626 0.1194487619875534 0.1194487619875534 0.1194487619875534 0.1194487619875534 0.1108634463189077 
0.1108634463189077 0.1108634463189077 0.1108634463189077 0.1010602187468492 0.1010602187468492 0.1010602187468492 0.1010602187468492 0.0901456976500595 0.0901456976500595 
0.0901456976500595 0.0901456976500595 0.07823813325930964 0.07823813325930964 0.07823813325930964 0.07823813325930964 0.06546948589846044 0.06546948589846044 0.06546948589846044 
0.06546948589846044 0.05198625682475736 0.05198625682475736 0.05198625682475736 0.05198625682475736 0.03792610419532276 0.03792610419532276 0.03792610419532276 0.03792610419532276 
0.02343788051604719 0.02343788051604719 0.02343788051604719 0.02343788051604719 0.008705252758687353 0.008705252758687353 0.008705252758687353 0.008705252758687353 -0.00611023216454446 
-0.00611023216454446 -0.00611023216454446 -0.00611023216454446 -0.02082910264031658 -0.02082910264031658 -0.02082910264031658 -0.02082910264031658 -0.03532736542268388 -0.03532736542268388 
-0.03532736542268388 -0.03532736542268388 -0.04946855306879876 -0.04946855306879876 -0.04946855306879876 -0.04946855306879876 -0.06307399192204108 -0.06307399192204108 -0.06307399192204108 
-0.06307399192204108 -0.07598024431501504 -0.07598024431501504 -0.07598024431501504 -0.07598024431501504 -0.08805026238554134 -0.08805026238554134 -0.08805026238554134 -0.08805026238554134 
-0.09915540907893784 -0.09915540907893784 -0.09915540907893784 -0.09915540907893784 -0.1091751099144707 -0.1091751099144707 -0.1091751099144707 -0.1091751099144707 -0.1179991345630152 
-0.1179991345630152 -0.1179991345630152 -0.1179991345630152 -0.1255306312268875 -0.1255306312268875 -0.1255306312268875 -0.1255306312268875 -0.1316872563730042 -0.1316872563730042 
-0.1316872563730042 -0.1316872563730042 -0.1364017302198713 -0.1364017302198713 -0.1364017302198713 -0.1364017302198713 -0.1396206712119964 -0.1396206712119964 -0.1396206712119964 
-0.1396206712119964 -0.1413051586236583 -0.1413051586236583 -0.1413051586236583 -0.1413051586236583 -0.141440488191135 -0.141440488191135 -0.141440488191135 -0.141440488191135 
-0.1400280454674519 -0.1400280454674519 -0.1400280454674519 -0.1400280454674519 -0.1370828669496858 -0.1370828669496858 -0.1370828669496858 -0.1370828669496858 -0.1326355226648183 
-0.1326355226648183 -0.1326355226648183 -0.1326355226648183 -0.1267397742931487 -0.1267397742931487 -0.1267397742931487 -0.1267397742931487 -0.1194692021162857 -0.1194692021162857 
-0.1194692021162857 -0.1194692021162857 -0.1109140009359258 -0.1109140009359258 -0.1109140009359258 -0.1109140009359258 -0.1011800844707384 -0.1011800844707384 -0.1011800844707384 
-0.1011800844707384 -0.09038413498977067 -0.09038413498977067 -0.09038413498977067 -0.09038413498977067 -0.07866076407042921 -0.07866076407042921 -0.07866076407042921 -0.07866076407042921 
-0.06608997291060001 -0.06608997291060001 -0.06608997291060001 -0.06608997291060001 -0.05302371266634101 -0.05302371266634101 -0.05302371266634101 -0.05302371266634101 -0.03864495136207429 
-0.03864495136207429 -0.03864495136207429 -0.03864495136207429 -0.02693818330208473 -0.02693818330208473 -0.02693818330208473 -0.02693818330208473 -0.00258924674483744 -0.00258924674483744 
-0.00258924674483744 -0.00258924674483744 0.01943574418063646 0.01943574418063646 0.01943574418063646 0.01943574418063646 0.03388801397510643 0.03388801397510643 0.03388801397510643 
0.03388801397510643 0.05536510941377407 0.05536510941377407 0.05536510941377407 0.05536510941377407 0.07827211388894868 0.07827211388894868 0.07827211388894868 0.07827211388894868 
0.1009532050369878 0.1009532050369878 0.1009532050369878 0.1009532050369878 0.1227233477427091 0.1227233477427091 0.1227233477427091 0.1227233477427091 0.1431603707947259 
0.1431603707947259 0.1431603707947259 0.1431603707947259 0.1619486534961707 0.1619486534961707 0.1619486534961707 0.1619486534961707 0.1788329277319904 0.1788329277319904 
0.1788329277319904 0.1788329277319904 0.1936086493554364 0.1936086493554364 0.1936086493554364 0.1936086493554364 0.2061181598943198 0.2061181598943198 0.2061181598943198 
0.2061181598943198 0.2162480945325966 0.2162480945325966 0.2162480945325966 0.2162480945325966 0.2239247369226486 0.2239247369226486 0.2239247369226486 0.2239247369226486 
0.2291042360941132 0.2291042360941132 0.2291042360941132 0.2291042360941132 0.2317659282651957 0.2317659282651957 0.2317659282651957 0.2317659282651957 0.2319094561445038 
0.2319094561445038 0.2319094561445038 0.2319094561445038 0.2295493554886773 0.2295493554886773 0.2295493554886773 0.2295493554886773 0.2247115344238959 0.2247115344238959 
0.2247115344238959 0.2247115344238959 0.2174402736184018 0.2174402736184018 0.2174402736184018 0.2174402736184018 0.2078038354583033 0.2078038354583033 0.2078038354583033 
0.2078038354583033 0.1958969305493537 0.1958969305493537 0.1958969305493537 0.1958969305493537 0.1818421446586174 0.1818421446586174 0.1818421446586174 0.1818421446586174 
0.1657887968249823 0.1657887968249823 0.1657887968249823 0.1657887968249823 0.1479118116242888 0.1479118116242888 0.1479118116242888 0.1479118116242888 0.1284071157385807 
0.1284071157385807 0.1284071157385807 0.1284071157385807 0.1074907397369942 0.1074907397369942 0.1074907397369942 0.1074907397369942 0.08539695168658529 0.08539695168658529 
0.08539695168658529 0.08539695168658529 0.06236387373316359 0.06236387373316359 0.06236387373316359 0.06236387373316359 0.03863877053688829 0.03863877053688829 0.03863877053688829 
0.03863877053688829 0.01449284927315342 0.01449284927315342 0.01449284927315342 0.01449284927315342 -0.009791390034440486 -0.009791390034440486 -0.009791390034440486 -0.009791390034440486 
-0.03395299680535439 -0.03395299680535439 -0.03395299680535439 -0.03395299680535439 -0.05775389106612758 -0.05775389106612758 -0.05775389106612758 -0.05775389106612758 -0.08093496814913412 
-0.08093496814913412 -0.08093496814913412 -0.08093496814913412 -0.103231381057585 -0.103231381057585 -0.103231381057585 -0.103231381057585 -0.1243939463434237 -0.1243939463434237 
-0.1243939463434237 -0.1243939463434237 -0.1441906845206121 -0.1441906845206121 -0.1441906845206121 -0.1441906845206121 -0.1624079392651929 -0.1624079392651929 -0.1624079392651929 
-0.1624079392651929 -0.1788469792826264 -0.1788469792826264 -0.1788469792826264 -0.1788469792826264 -0.1933273401216291 -0.1933273401216291 -0.1933273401216291 -0.1933273401216291 
-0.2056898375742694 -0.2056898375742694 -0.2056898375742694 -0.2056898375742694 -0.2157990320602313 -0.2157990320602313 -0.2157990320602313 -0.2157990320602313 -0.223544234732156 
-0.223544234732156 -0.223544234732156 -0.223544234732156 -0.2288388804893494 -0.2288388804893494 -0.2288388804893494 -0.2288388804893494 -0.2316230001110603 -0.2316230001110603 
-0.2316230001110603 -0.2316230001110603 -0.2318674846261211 -0.2318674846261211 -0.2318674846261211 -0.2318674846261211 -0.2295722481338178 -0.2295722481338178 -0.2295722481338178 
-0.2295722481338178 -0.2247624034852979 -0.2247624034852979 -0.2247624034852979 -0.2247624034852979 -0.2174926941213728 -0.2174926941213728 -0.2174926941213728 -0.2174926941213728 
-0.2078498214977626 -0.2078498214977626 -0.2078498214977626 -0.2078498214977626 -0.1959513701850744 -0.1959513701850744 -0.1959513701850744 -0.1959513701850744 -0.1819439772892427 
-0.1819439772892427 -0.1819439772892427 -0.1819439772892427 -0.1660003423969979 -0.1660003423969979 -0.1660003423969979 -0.1660003423969979 -0.1483101194817869 -0.1483101194817869 
-0.1483101194817869 -0.1483101194817869 -0.1290950388174113 -0.1290950388174113 -0.1290950388174113 -0.1290950388174113 -0.1084922148671054 -0.1084922148671054 -0.1084922148671054 
-0.1084922148671054 -0.08704140850127215 -0.08704140850127215 -0.08704140850127215 -0.08704140850127215 -0.06355509999927028 -0.06355509999927028 -0.06355509999927028 -0.06355509999927028 
-0.04404662154603917 -0.04404662154603917 -0.04404662154603917 -0.04404662154603917 -0.004749402629607826 -0.004749402629607826 -0.004749402629607826 -0.004749402629607826 0.02713815408212845 
0.02713815408212845 0.02713815408212845 0.02713815408212845 0.04790996736164518 0.04790996736164518 0.04790996736164518 0.04790996736164518 0.07843342311074938 0.07843342311074938 
0.07843342311074938 0.07843342311074938 0.110737758199976 0.110737758199976 0.110737758199976 0.110737758199976 0.1426564787468808 0.1426564787468808 0.1426564787468808 
0.1426564787468808 0.1733199311613622 0.1733199311613622 0.1733199311613622 0.1733199311613622 0.2021681977133725 0.2021681977133725 0.2021681977133725 0.2021681977133725 
0.2287429279630708 0.2287429279630708 0.2287429279630708 0.2287429279630708 0.2526576795082331 0.2526576795082331 0.2526576795082331 0.2526576795082331 0.2735997193865598 
0.2735997193865598 0.2735997193865598 0.2735997193865598 0.2913306302110378 0.2913306302110378 0.2913306302110378 0.2913306302110378 0.3056844396181655 0.3056844396181655 
0.3056844396181655 0.3056844396181655 0.3165566915199376 0.3165566915199376 0.3165566915199376 0.3165566915199376 0.3238896893235375 0.3238896893235375 0.3238896893235375 
0.3238896893235375 0.3276597929016083 0.3276597929016083 0.3276597929016083 0.3276597929016083 0.3278688025011888 0.3278688025011888 0.3278688025011888 0.3278688025011888 
0.3245377706795466 0.3245377706795466 0.3245377706795466 0.3245377706795466 0.3177062317743459 0.3177062317743459 0.3177062317743459 0.3177062317743459 0.3074377471284619 
0.3074377471284619 0.3074377471284619 0.3074377471284619 0.2938273540203745 0.2938273540203745 0.2938273540203745 0.2938273540203745 0.2770075117564296 0.2770075117564296 
0.2770075117564296 0.2770075117564296 0.2571501040359006 0.2571501040359006 0.2571501040359006 0.2571501040359006 0.2344659023464183 0.2344659023464183 0.2344659023464183 
0.2344659023464183 0.209202217431109 0.209202217431109 0.209202217431109 0.209202217431109 0.1816372552351194 0.1816372552351194 0.1816372552351194 0.1816372552351194 
0.15207634596605 0.15207634596605 0.15207634596605 0.15207634596605 0.1208482618421166 0.1208482618421166 0.1208482618421166 0.1208482618421166 0.08829516512919318 
0.08829516512919318 0.08829516512919318 0.08829516512919318 0.05477035308514643 0.05477035308514643 0.05477035308514643 0.05477035308514643 0.02064621552780148 0.02064621552780148 
0.02064621552780148 0.02064621552780148 -0.01369437488041788 -0.01369437488041788 -0.01369437488041788 -0.01369437488041788 -0.04787866267777775 -0.04787866267777775 -0.04787866267777775 
-0.04787866267777775 -0.08153945749603199 -0.08153945749603199 -0.08153945749603199 -0.08153945749603199 -0.1143111656949786 -0.1143111656949786 -0.1143111656949786 -0.1143111656949786 
-0.1458324124564917 -0.1458324124564917 -0.1458324124564917 -0.1458324124564917 -0.1757534199807668 -0.1757534199807668 -0.1757534199807668 -0.1757534199807668 -0.2037479506446453 
-0.2037479506446453 -0.2037479506446453 -0.2037479506446453 -0.2295112168398341 -0.2295112168398341 -0.2295112168398341 -0.2295112168398341 -0.2527612751361353 -0.2527612751361353 
-0.2527612751361353 -0.2527612751361353 -0.2732429688966976 -0.2732429688966976 -0.2732429688966976 -0.2732429688966976 -0.2907311675652693 -0.2907311675652693 -0.2907311675652693 
-0.2907311675652693 -0.3050342296216345 -0.3050342296216345 -0.3050342296216345 -0.3050342296216345 -0.3159951309404961 -0.3159951309404961 -0.3159951309404961 -0.3159951309404961 
-0.3234924519784195 -0.3234924519784195 -0.3234924519784195 -0.3234924519784195 -0.3274428292520434 -0.3274428292520434 -0.3274428292520434 -0.3274428292520434 -0.3278037122621683 
-0.3278037122621683 -0.3278037122621683 -0.3278037122621683 -0.3245727370860596 -0.3245727370860596 -0.3245727370860596 -0.3245727370860596 -0.3177869719440479 -0.3177869719440479 
-0.3177869719440479 -0.3177869719440479 -0.3075247509261468 -0.3075247509261468 -0.3075247509261468 -0.3075247509261468 -0.2939076367770485 -0.2939076367770485 -0.2939076367770485 
-0.2939076367770485 -0.2771009531311357 -0.2771009531311357 -0.2771009531311357 -0.2771009531311357 -0.2573106657196992 -0.2573106657196992 -0.2573106657196992 -0.2573106657196992 
-0.2347801987856515 -0.2347801987856515 -0.2347801987856515 -0.2347801987856515 -0.2097765907859158 -0.2097765907859158 -0.2097765907859158 -0.2097765907859158 -0.1826133759800197 
-0.1826133759800197 -0.1826133759800197 -0.1826133759800197 -0.1534892531522413 -0.1534892531522413 -0.1534892531522413 -0.1534892531522413 -0.1231412131272819 -0.1231412131272819 
-0.1231412131272819 -0.1231412131272819 -0.08999592779793661 -0.08999592779793661 -0.08999592779793661 -0.08999592779793661 -0.06218162146441206 -0.06218162146441206 -0.06218162146441206 
-0.06218162146441206 -0.007038528156310619 -0.007038528156310619 -0.007038528156310619 -0.007038528156310619 0.03475443145554381 0.03475443145554381 0.03475443145554381 0.03475443145554381 
0.06160208545256471 0.06160208545256471 0.06160208545256471 0.06160208545256471 0.1010775308325411 0.1010775308325411 0.1010775308325411 0.1010775308325411 0.1427795632239467 
0.1427795632239467 0.1427795632239467 0.1427795632239467 0.1838915916857491 0.1838915916857491 0.1838915916857491 0.1838915916857491 0.223342072653695 0.223342072653695 
0.223342072653695 0.223342072653695 0.2604546251760315 0.2604546251760315 0.2604546251760315 0.2604546251760315 0.2946635765573417 0.2946635765573417 0.2946635765573417 
0.2946635765573417 0.325476255542781 0.325476255542781 0.325476255542781 0.325476255542781 0.3524809404516328 0.3524809404516328 0.3524809404516328 0.3524809404516328 
0.3753595288884133 0.3753595288884133 0.3753595288884133 0.3753595288884133 0.3938881480348733 0.3938881480348733 0.3938881480348733 0.3938881480348733 0.4079256039336159 
0.4079256039336159 0.4079256039336159 0.4079256039336159 0.4173955910827993 0.4173955910827993 0.4173955910827993 0.4173955910827993 0.4222685488576087 0.4222685488576087 
0.4222685488576087 0.4222685488576087 0.4225480507275947 0.4225480507275947 0.4225480507275947 0.4225480507275947 0.4182628237524763 0.4182628237524763 0.4182628237524763 
0.4182628237524763 0.4094658859140921 0.4094658859140921 0.4094658859140921 0.4094658859140921 0.3962405207992015 0.3962405207992015 0.3962405207992015 0.3962405207992015 
0.3787095324322373 0.3787095324322373 0.3787095324322373 0.3787095324322373 0.3570427016105965 0.3570427016105965 0.3570427016105965 0.3570427016105965 0.3314606576181365 
0.3314606576181365 0.3314606576181365 0.3314606576181365 0.3022346976341626 0.3022346976341626 0.3022346976341626 0.3022346976341626 0.2696833386303545 0.2696833386303545 
0.2696833386303545 0.2696833386303545 0.2341658342925783 0.2341658342925783 0.2341658342925783 0.2341658342925783 0.1960757764511294 0.1960757764511294 0.1960757764511294 
0.1960757764511294 0.1558355163517607 0.1558355163517607 0.1558355163517607 0.1558355163517607 0.1138879664161613 0.1138879664161613 0.1138879664161613 0.1138879664161613 
0.0706915909670502 0.0706915909670502 0.0706915909670502 0.0706915909670502 0.0267208625753994 0.0267208625753994 0.0267208625753994 0.0267208625753994 -0.01753941369207693 
-0.01753941369207693 -0.01753941369207693 -0.01753941369207693 -0.06160324332887034 -0.06160324332887034 -0.06160324332887034 -0.06160324332887034 -0.104990592442487 -0.104990592442487 
-0.104990592442487 -0.104990592442487 -0.1472283551651065 -0.1472283551651065 -0.1472283551651065 -0.1472283551651065 -0.1878518014155247 -0.1878518014155247 -0.1878518014155247 
-0.1878518014155247 -0.2264160380356586 -0.2264160380356586 -0.2264160380356586 -0.2264160380356586 -0.2625000314527365 -0.2625000314527365 -0.2625000314527365 -0.2625000314527365 
-0.2957092697035698 -0.2957092697035698 -0.2957092697035698 -0.2957092697035698 -0.3256802368701673 -0.3256802368701673 -0.3256802368701673 -0.3256802368701673 -0.3520838307895627 
-0.3520838307895627 -0.3520838307895627 -0.3520838307895627 -0.37463027702514 -0.37463027702514 -0.37463027702514 -0.37463027702514 -0.3930723351945676 -0.3930723351945676 
-0.3930723351945676 -0.3930723351945676 -0.407207380090705 -0.407207380090705 -0.407207380090705 -0.407207380090705 -0.4168794713455249 -0.4168794713455249 -0.4168794713455249 
-0.4168794713455249 -0.421981779548331 -0.421981779548331 -0.421981779548331 -0.421981779548331 -0.4224587540817822 -0.4224587540817822 -0.4224587540817822 -0.4224587540817822 
-0.4183065536665176 -0.4183065536665176 -0.4183065536665176 -0.4183065536665176 -0.4095731665878801 -0.4095731665878801 -0.4095731665878801 -0.4095731665878801 -0.3963598818658683 
-0.3963598818658683 -0.3963598818658683 -0.3963598818658683 -0.3788233666429955 -0.3788233666429955 -0.3788233666429955 -0.3788233666429955 -0.3571757466007067 -0.3571757466007067 
-0.3571757466007067 -0.3571757466007067 -0.331681473826121 -0.331681473826121 -0.331681473826121 -0.331681473826121 -0.3026536246966587 -0.3026536246966587 -0.3026536246966587 
-0.3026536246966587 -0.2704355228494907 -0.2704355228494907 -0.2704355228494907 -0.2704355228494907 -0.2354307295714073 -0.2354307295714073 -0.2354307295714073 -0.2354307295714073 
-0.1978999385147523 -0.1978999385147523 -0.1978999385147523 -0.1978999385147523 -0.1587722516371842 -0.1587722516371842 -0.1587722516371842 -0.1587722516371842 -0.1160947091828609 
-0.1160947091828609 -0.1160947091828609 -0.1160947091828609 -0.08012453674701685 -0.08012453674701685 -0.08012453674701685 -0.08012453674701685 -0.009226982019956682 -0.009226982019956682 
-0.009226982019956682 -0.009226982019956682 0.04206040525839937 0.04206040525839937 0.04206040525839937 0.04206040525839937 0.07465533371394617 0.07465533371394617 0.07465533371394617 
0.07465533371394617 0.122620742934098 0.122620742934098 0.122620742934098 0.122620742934098 0.1733125576847868 0.1733125576847868 0.1733125576847868 0.1733125576847868 
0.2232721936976277 0.2232721936976277 0.2232721936976277 0.2232721936976277 0.2711808262953027 0.2711808262953027 0.2711808262953027 0.2711808262953027 0.3162233002193 
0.3162233002193 0.3162233002193 0.3162233002193 0.3577300242137678 0.3577300242137678 0.3577300242137678 0.3577300242137678 0.3951165786577485 0.3951165786577485 
0.3951165786577485 0.3951165786577485 0.4278917601621046 0.4278917601621046 0.4278917601621046 0.4278917601621046 0.4556713724783554 0.4556713724783554 0.4556713724783554 
0.4556713724783554 0.478180244203862 0.478180244203862 0.478180244203862 0.478180244203862 0.4952419066586853 0.4952419066586853 0.4952419066586853 0.4952419066586853 
0.5067592338179054 0.5067592338179054 0.5067592338179054 0.5067592338179054 0.512693537681447 0.512693537681447 0.512693537681447 0.512693537681447 0.5130477300964837 
0.5130477300964837 0.5130477300964837 0.5130477300964837 0.5078565212239086 0.5078565212239086 0.5078565212239086 0.5078565212239086 0.4971852272657731 0.4971852272657731 
0.4971852272657731 0.4971852272657731 0.4811362658374883 0.4811362658374883 0.4811362658374883 0.4811362658374883 0.4598592741035618 0.4598592741035618 0.4598592741035618 
0.4598592741035618 0.433560279680163 0.433560279680163 0.433560279680163 0.433560279680163 0.4025068646628017 0.4025068646628017 0.4025068646628017 0.4025068646628017 
0.3670282149879766 0.3670282149879766 0.3670282149879766 0.3670282149879766 0.3275109790150526 0.3275109790150526 0.3275109790150526 0.3275109790150526 0.2843917405892779 
0.2843917405892779 0.2843917405892779 0.2843917405892779 0.238148604448664 0.238148604448664 0.238148604448664 0.238148604448664 0.1892936569627318 0.1892936569627318 
0.1892936569627318 0.1892936569627318 0.1383651716349862 0.1383651716349862 0.1383651716349862 0.1383651716349862 0.08592136581410377 0.08592136581410377 0.08592136581410377 
0.08592136581410377 0.03253670083068525 0.03253670083068525 0.03253670083068525 0.03253670083068525 -0.02120272250408984 -0.02120272250408984 -0.02120272250408984 -0.02120272250408984 
-0.07470724458408606 -0.07470724458408606 -0.07470724458408606 -0.07470724458408606 -0.1273912440368314 -0.1273912440368314 -0.1273912440368314 -0.1273912440368314 -0.1786773804007288 
-0.1786773804007288 -0.1786773804007288 -0.1786773804007288 -0.2280042456959869 -0.2280042456959869 -0.2280042456959869 -0.2280042456959869 -0.2748325587451602 -0.2748325587451602 
-0.2748325587451602 -0.2748325587451602 -0.3186502949501286 -0.3186502949501286 -0.3186502949501286 -0.3186502949501286 -0.3589784163668227 -0.3589784163668227 -0.3589784163668227 
-0.3589784163668227 -0.3953750023808651 -0.3953750023808651 -0.3953750023808651 -0.3953750023808651 -0.4274407272421035 -0.4274407272421035 -0.4274407272421035 -0.4274407272421035 
-0.4548238825093074 -0.4548238825093074 -0.4548238825093074 -0.4548238825093074 -0.4772240064076908 -0.4772240064076908 -0.4772240064076908 -0.4772240064076908 -0.4943950178258396 
-0.4943950178258396 -0.4943950178258396 -0.4943950178258396 -0.5061478358453225 -0.5061478358453225 -0.5061478358453225 -0.5061478358453225 -0.5123529703654024 -0.5123529703654024 
-0.5123529703654024 -0.5123529703654024 -0.5129426085672807 -0.5129426085672807 -0.5129426085672807 -0.5129426085672807 -0.5079115978454811 -0.5079115978454811 -0.5079115978454811 
-0.5079115978454811 -0.4973182049942222 -0.4973182049942222 -0.4973182049942222 -0.4973182049942222 -0.4812857651649993 -0.4812857651649993 -0.4812857651649993 -0.4812857651649993 
-0.4600043251218707 -0.4600043251218707 -0.4600043251218707 -0.4600043251218707 -0.4337308222172665 -0.4337308222172665 -0.4337308222172665 -0.4337308222172665 -0.4027856171842801 
-0.4027856171842801 -0.4027856171842801 -0.4027856171842801 -0.3675481696600105 -0.3675481696600105 -0.3675481696600105 -0.3675481696600105 -0.3284347934825054 -0.3284347934825054 
-0.3284347934825054 -0.3284347934825054 -0.2859347989003651 -0.2859347989003651 -0.2859347989003651 -0.2859347989003651 -0.2403683493798068 -0.2403683493798068 -0.2403683493798068 
-0.2403683493798068 -0.1928500348636403 -0.1928500348636403 -0.1928500348636403 -0.1928500348636403 -0.1410532525589502 -0.1410532525589502 -0.1410532525589502 -0.1410532525589502 
-0.09732244702155876 -0.09732244702155876 -0.09732244702155876 -0.09732244702155876 -0.01129387203543381 -0.01129387203543381 -0.01129387203543381 -0.01129387203543381 0.04888591646672265 
0.04888591646672265 0.04888591646672265 0.04888591646672265 0.08683813256321676 0.08683813256321676 0.08683813256321676 0.08683813256321676 0.142689206315734 0.142689206315734 
0.142689206315734 0.142689206315734 0.2017398458547816 0.2017398458547816 0.2017398458547816 0.2017398458547816 0.259957101022373 0.259957101022373 0.259957101022373 
0.259957101022373 0.3157869093020761 0.3157869093020761 0.3157869093020761 0.3157869093020761 0.3682664216026683 0.3682664216026683 0.3682664216026683 0.3682664216026683 
0.416610711546845 0.416610711546845 0.416610711546845 0.416610711546845 0.4601431797501199 0.4601431797501199 0.4601431797501199 0.4601431797501199 0.498300206129948 
0.498300206129948 0.498300206129948 0.498300206129948 0.5306416894763271 0.5306416894763271 0.5306416894763271 0.5306416894763271 0.556851546938552 0.556851546938552 