Title = Result/Linear_Advection_2D/FVM/MLP_u1_Least_Square/Sine_Wave_2D/Quad60/
FileType = Solution
Variables = q
Zone T = Result/Linear_Advection_2D/FVM/MLP_u1_Least_Square/Sine_Wave_2D/Quad60/
ZoneType = FETriangle
Nodes = 14400
Elements = 7200
DataPacking = Block
StrandID = 19
SolutionTime = 1.8
0.6281395255301965 0.6281395255301965 0.6281395255301965 0.6281395255301965 0.6352241985794816 0.6352241985794816 0.6352241985794816 0.6352241985794816 0.6406638322907445 0.6406638322907445 
0.6406638322907445 0.6406638322907445 0.6405711283776053 0.6405711283776053 0.6405711283776053 0.6405711283776053 0.6339371316166521 0.6339371316166521 0.6339371316166521 
0.6339371316166521 0.6205540978575101 0.6205540978575101 0.6205540978575101 0.6205540978575101 0.6004769035866213 0.6004769035866213 0.6004769035866213 0.6004769035866213 
0.5738693487369881 0.5738693487369881 0.5738693487369881 0.5738693487369881 0.5409838062425329 0.5409838062425329 0.5409838062425329 0.5409838062425329 0.5021571843869523 
0.5021571843869523 0.5021571843869523 0.5021571843869523 0.4578063747163985 0.4578063747163985 0.4578063747163985 0.4578063747163985 0.4084195598362939 0.4084195598362939 
0.4084195598362939 0.4084195598362939 0.3545457984032612 0.3545457984032612 0.3545457984032612 0.3545457984032612 0.2967835885575321 0.2967835885575321 0.2967835885575321 
0.2967835885575321 0.2357706624840461 0.2357706624840461 0.2357706624840461 0.2357706624840461 0.1721761336006024 0.1721761336006024 0.1721761336006024 0.1721761336006024 
0.1066950930168914 0.1066950930168914 0.1066950930168914 0.1066950930168914 0.04004391718032631 0.04004391718032631 0.04004391718032631 0.04004391718032631 -0.02704597027742219 
-0.02704597027742219 -0.02704597027742219 -0.02704597027742219 -0.09383688029539458 -0.09383688029539458 -0.09383688029539458 -0.09383688029539458 -0.1595950977893487 -0.1595950977893487 
-0.1595950977893487 -0.1595950977893487 -0.2236004694598371 -0.2236004694598371 -0.2236004694598371 -0.2236004694598371 -0.2851540411367163 -0.2851540411367163 -0.2851540411367163 
-0.2851540411367163 -0.3435841025119731 -0.3435841025119731 -0.3435841025119731 -0.3435841025119731 -0.398252018804032 -0.398252018804032 -0.398252018804032 -0.398252018804032 
-0.4485588178569555 -0.4485588178569555 -0.4485588178569555 -0.4485588178569555 -0.493952397320028 -0.493952397320028 -0.493952397320028 -0.493952397320028 -0.5339344968827471 
-0.5339344968827471 -0.5339344968827471 -0.5339344968827471 -0.5680666995696193 -0.5680666995696193 -0.5680666995696193 -0.5680666995696193 -0.5959753076605474 -0.5959753076605474 
-0.5959753076605474 -0.5959753076605474 -0.6173549898087757 -0.6173549898087757 -0.6173549898087757 -0.6173549898087757 -0.6319708881691684 -0.6319708881691684 -0.6319708881691684 
-0.6319708881691684 -0.6396559455666693 -0.6396559455666693 -0.6396559455666693 -0.6396559455666693 -0.6403277919736083 -0.6403277919736083 -0.6403277919736083 -0.6403277919736083 
-0.6339963808564737 -0.6339963808564737 -0.6339963808564737 -0.6339963808564737 -0.6207127152724823 -0.6207127152724823 -0.6207127152724823 -0.6207127152724823 -0.6006367273052202 
-0.6006367273052202 -0.6006367273052202 -0.6006367273052202 -0.5740058096928494 -0.5740058096928494 -0.5740058096928494 -0.5740058096928494 -0.5411424749065811 -0.5411424749065811 
-0.5411424749065811 -0.5411424749065811 -0.5024485396563412 -0.5024485396563412 -0.5024485396563412 -0.5024485396563412 -0.4583997261372351 -0.4583997261372351 -0.4583997261372351 
-0.4583997261372351 -0.4095312502655982 -0.4095312502655982 -0.4095312502655982 -0.4095312502655982 -0.3564184485995006 -0.3564184485995006 -0.3564184485995006 -0.3564184485995006 
-0.2996528655927949 -0.2996528655927949 -0.2996528655927949 -0.2996528655927949 -0.2398193181917937 -0.2398193181917937 -0.2398193181917937 -0.2398193181917937 -0.1774796082607293 
-0.1774796082607293 -0.1774796082607293 -0.1774796082607293 -0.1131687292160911 -0.1131687292160911 -0.1131687292160911 -0.1131687292160911 -0.04740675085930805 -0.04740675085930805 
-0.04740675085930805 -0.04740675085930805 0.01927481574299499 0.01927481574299499 0.01927481574299499 0.01927481574299499 0.08629843883310075 0.08629843883310075 0.08629843883310075 
0.08629843883310075 0.1530082563606331 0.1530082563606331 0.1530082563606331 0.1530082563606331 0.2186511195445027 0.2186511195445027 0.2186511195445027 0.2186511195445027 
0.2823819020747451 0.2823819020747451 0.2823819020747451 0.2823819020747451 0.3432902007689319 0.3432902007689319 0.3432902007689319 0.3432902007689319 0.4004629691446708 
0.4004629691446708 0.4004629691446708 0.4004629691446708 0.4530219907675602 0.4530219907675602 0.4530219907675602 0.4530219907675602 0.5002008133977214 0.5002008133977214 
0.5002008133977214 0.5002008133977214 0.5416898215329096 0.5416898215329096 0.5416898215329096 0.5416898215329096 0.5746823338315393 0.5746823338315393 0.5746823338315393 
0.5746823338315393 0.6138864927165109 0.6138864927165109 0.6138864927165109 0.6138864927165109 0.6724907445461001 0.6724907445461001 0.6724907445461001 0.6724907445461001 
0.6798406938584203 0.6798406938584203 0.6798406938584203 0.6798406938584203 0.6857209060519436 0.6857209060519436 0.6857209060519436 0.6857209060519436 0.6856768231074063 
0.6856768231074063 0.6856768231074063 0.6856768231074063 0.6786082132263929 0.6786082132263929 0.6786082132263929 0.6786082132263929 0.6643024298422977 0.6643024298422977 
0.6643024298422977 0.6643024298422977 0.642818960535566 0.642818960535566 0.642818960535566 0.642818960535566 0.6143400266636239 0.6143400266636239 0.6143400266636239 
0.6143400266636239 0.5791392034281848 0.5791392034281848 0.5791392034281848 0.5791392034281848 0.5375788704829033 0.5375788704829033 0.5375788704829033 0.5375788704829033 
0.4901054272956032 0.4901054272956032 0.4901054272956032 0.4901054272956032 0.437241189491867 0.437241189491867 0.437241189491867 0.437241189491867 0.3795734581376674 
0.3795734581376674 0.3795734581376674 0.3795734581376674 0.3177426432812948 0.3177426432812948 0.3177426432812948 0.3177426432812948 0.2524313687961816 0.2524313687961816 
0.2524313687961816 0.2524313687961816 0.1843559860974536 0.1843559860974536 0.1843559860974536 0.1843559860974536 0.1142606506437769 0.1142606506437769 0.1142606506437769 
0.1142606506437769 0.04291222816798947 0.04291222816798947 0.04291222816798947 0.04291222816798947 -0.028906357585252 -0.028906357585252 -0.028906357585252 -0.028906357585252 
-0.1004054567405879 -0.1004054567405879 -0.1004054567405879 -0.1004054567405879 -0.1707996210723603 -0.1707996210723603 -0.1707996210723603 -0.1707996210723603 -0.2393178902347988 
-0.2393178902347988 -0.2393178902347988 -0.2393178902347988 -0.3052119970695848 -0.3052119970695848 -0.3052119970695848 -0.3052119970695848 -0.3677628590755982 -0.3677628590755982 
-0.3677628590755982 -0.3677628590755982 -0.4262868085667205 -0.4262868085667205 -0.4262868085667205 -0.4262868085667205 -0.4801426197967753 -0.4801426197967753 -0.4801426197967753 
-0.4801426197967753 -0.5287392287331569 -0.5287392287331569 -0.5287392287331569 -0.5287392287331569 -0.5715432267269859 -0.5715432267269859 -0.5715432267269859 -0.5715432267269859 
-0.6080853250874128 -0.6080853250874128 -0.6080853250874128 -0.6080853250874128 -0.6379654952716894 -0.6379654952716894 -0.6379654952716894 -0.6379654952716894 -0.6608565771898949 
-0.6608565771898949 -0.6608565771898949 -0.6608565771898949 -0.6765061812632602 -0.6765061812632602 -0.6765061812632602 -0.6765061812632602 -0.684738943966782 -0.684738943966782 
-0.684738943966782 -0.684738943966782 -0.6854674864011565 -0.6854674864011565 -0.6854674864011565 -0.6854674864011565 -0.6786878392211149 -0.6786878392211149 -0.6786878392211149 
-0.6786878392211149 -0.664474508360597 -0.664474508360597 -0.664474508360597 -0.664474508360597 -0.6429883507556555 -0.6429883507556555 -0.6429883507556555 -0.6429883507556555 
-0.6144852534333356 -0.6144852534333356 -0.6144852534333356 -0.6144852534333356 -0.5793093560693434 -0.5793093560693434 -0.5793093560693434 -0.5793093560693434 -0.5378912815939803 
-0.5378912815939803 -0.5378912815939803 -0.5378912815939803 -0.4907400807196766 -0.4907400807196766 -0.4907400807196766 -0.4907400807196766 -0.4384288761726721 -0.4384288761726721 
-0.4384288761726721 -0.4384288761726721 -0.3815738326681962 -0.3815738326681962 -0.3815738326681962 -0.3815738326681962 -0.3208086771453839 -0.3208086771453839 -0.3208086771453839 
-0.3208086771453839 -0.2567599959283203 -0.2567599959283203 -0.2567599959283203 -0.2567599959283203 -0.1900296134261817 -0.1900296134261817 -0.1900296134261817 -0.1900296134261817 
-0.1211903241087864 -0.1211903241087864 -0.1211903241087864 -0.1211903241087864 -0.05079846532102233 -0.05079846532102233 -0.05079846532102233 -0.05079846532102233 0.02057787063777578 
0.02057787063777578 0.02057787063777578 0.02057787063777578 0.09232165713763885 0.09232165713763885 0.09232165713763885 0.09232165713763885 0.1637320433014639 0.1637320433014639 
0.1637320433014639 0.1637320433014639 0.2340036619710336 0.2340036619710336 0.2340036619710336 0.2340036619710336 0.3022320917336808 0.3022320917336808 0.3022320917336808 
0.3022320917336808 0.3674420051266281 0.3674420051266281 0.3674420051266281 0.3674420051266281 0.4286551399482335 0.4286551399482335 0.4286551399482335 0.4286551399482335 
0.484929039903183 0.484929039903183 0.484929039903183 0.484929039903183 0.5354395725745267 0.5354395725745267 0.5354395725745267 0.5354395725745267 0.5798814301459854 
0.5798814301459854 0.5798814301459854 0.5798814301459854 0.615081172600714 0.615081172600714 0.615081172600714 0.615081172600714 0.6573630301671138 0.6573630301671138 
0.6573630301671138 0.6573630301671138 0.7322487813286226 0.7322487813286226 0.7322487813286226 0.7322487813286226 0.740185743292845 0.740185743292845 0.740185743292845 
0.740185743292845 0.7465241084747541 0.7465241084747541 0.7465241084747541 0.7465241084747541 0.7464705633368816 0.7464705633368816 0.7464705633368816 0.7464705633368816 
0.7387937580283652 0.7387937580283652 0.7387937580283652 0.7387937580283652 0.7232427044721397 0.7232427044721397 0.7232427044721397 0.7232427044721397 0.6998723161215851 
0.6998723161215851 0.6998723161215851 0.6998723161215851 0.668877594380911 0.668877594380911 0.668877594380911 0.668877594380911 0.6305587242441535 0.6305587242441535 
0.6305587242441535 0.6305587242441535 0.5853132008804823 0.5853132008804823 0.5853132008804823 0.5853132008804823 0.5336292886699056 0.5336292886699056 0.5336292886699056 
0.5336292886699056 0.4760767639155716 0.4760767639155716 0.4760767639155716 0.4760767639155716 0.4132951470641134 0.4132951470641134 0.4132951470641134 0.4132951470641134 
0.3459813274139442 0.3459813274139442 0.3459813274139442 0.3459813274139442 0.274878088364492 0.274878088364492 0.274878088364492 0.274878088364492 0.2007650639910055 
0.2007650639910055 0.2007650639910055 0.2007650639910055 0.1244522768743106 0.1244522768743106 0.1244522768743106 0.1244522768743106 0.04677452594931778 0.04677452594931778 
0.04677452594931778 0.04677452594931778 -0.03141588174655814 -0.03141588174655814 -0.03141588174655814 -0.03141588174655814 -0.1092592675997831 -0.1092592675997831 -0.1092592675997831 
-0.1092592675997831 -0.1859004568441704 -0.1859004568441704 -0.1859004568441704 -0.1859004568441704 -0.2604999923372461 -0.2604999923372461 -0.2604999923372461 -0.2604999923372461 
-0.3322431120675616 -0.3322431120675616 -0.3322431120675616 -0.3322431120675616 -0.4003468508780829 -0.4003468508780829 -0.4003468508780829 -0.4003468508780829 -0.464066827814029 
-0.464066827814029 -0.464066827814029 -0.464066827814029 -0.5227048872273432 -0.5227048872273432 -0.5227048872273432 -0.5227048872273432 -0.5756174994597864 -0.5756174994597864 
-0.5756174994597864 -0.5756174994597864 -0.6222239282353523 -0.6222239282353523 -0.6222239282353523 -0.6222239282353523 -0.6620132371434906 -0.6620132371434906 -0.6620132371434906 
-0.6620132371434906 -0.6945497189150063 -0.6945497189150063 -0.6945497189150063 -0.6945497189150063 -0.7194767633441305 -0.7194767633441305 -0.7194767633441305 -0.7194767633441305 
-0.7365196918054254 -0.7365196918054254 -0.7365196918054254 -0.7365196918054254 -0.7454895234466387 -0.7454895234466387 -0.7454895234466387 -0.7454895234466387 -0.7462892185269389 
-0.7462892185269389 -0.7462892185269389 -0.7462892185269389 -0.7389131966375475 -0.7389131966375475 -0.7389131966375475 -0.7389131966375475 -0.7234432974848121 -0.7234432974848121 
-0.7234432974848121 -0.7234432974848121 -0.7000571795329806 -0.7000571795329806 -0.7000571795329806 -0.7000571795329806 -0.6690310657773799 -0.6690310657773799 -0.6690310657773799 
-0.6690310657773799 -0.6307392594674643 -0.6307392594674643 -0.6307392594674643 -0.6307392594674643 -0.5856505441358302 -0.5856505441358302 -0.5856505441358302 -0.5856505441358302 
-0.5343190469393826 -0.5343190469393826 -0.5343190469393826 -0.5343190469393826 -0.4773688673442265 -0.4773688673442265 -0.4773688673442265 -0.4773688673442265 -0.4154710401292204 
-0.4154710401292204 -0.4154710401292204 -0.4154710401292204 -0.3493159518335217 -0.3493159518335217 -0.3493159518335217 -0.3493159518335217 -0.2795863316859329 -0.2795863316859329 
-0.2795863316859329 -0.2795863316859329 -0.2069379183110826 -0.2069379183110826 -0.2069379183110826 -0.2069379183110826 -0.131994595502284 -0.131994595502284 -0.131994595502284 
-0.131994595502284 -0.05536189602289503 -0.05536189602289503 -0.05536189602289503 -0.05536189602289503 0.02234235825816953 0.02234235825816953 0.02234235825816953 0.02234235825816953 
0.1004474869090061 0.1004474869090061 0.1004474869090061 0.1004474869090061 0.1781917070507877 0.1781917070507877 0.1781917070507877 0.1781917070507877 0.2546992426996504 
0.2546992426996504 0.2546992426996504 0.2546992426996504 0.328985927657299 0.328985927657299 0.328985927657299 0.328985927657299 0.3999896139126984 0.3999896139126984 
0.3999896139126984 0.3999896139126984 0.4666442552028543 0.4666442552028543 0.4666442552028543 0.4666442552028543 0.5279220673808399 0.5279220673808399 0.5279220673808399 
0.5279220673808399 0.5829249461185249 0.5829249461185249 0.5829249461185249 0.5829249461185249 0.6313143164412085 0.6313143164412085 0.6313143164412085 0.6313143164412085 
0.6696668694853095 0.6696668694853095 0.6696668694853095 0.6696668694853095 0.7156256851656392 0.7156256851656392 0.7156256851656392 0.7156256851656392 0.7887903978958857 
0.7887903978958857 0.7887903978958857 0.7887903978958857 0.7973604060239696 0.7973604060239696 0.7973604060239696 0.7973604060239696 0.804166602952742 0.804166602952742 
0.804166602952742 0.804166602952742 0.8040822002522889 0.8040822002522889 0.8040822002522889 0.8040822002522889 0.7958036338007637 0.7958036338007637 0.7958036338007637 
0.7958036338007637 0.7790596413449424 0.7790596413449424 0.7790596413449424 0.7790596413449424 0.7539002791468451 0.7539002791468451 0.7539002791468451 0.7539002791468451 
0.7205277539422703 0.7205277539422703 0.7205277539422703 0.7205277539422703 0.6792614800622379 0.6792614800622379 0.6792614800622379 0.6792614800622379 0.6305290292897424 
0.6305290292897424 0.6305290292897424 0.6305290292897424 0.574857834593389 0.574857834593389 0.574857834593389 0.574857834593389 0.512863455995944 0.512863455995944 
0.512863455995944 0.512863455995944 0.445236112887921 0.445236112887921 0.445236112887921 0.445236112887921 0.3727270980594891 0.3727270980594891 0.3727270980594891 
0.3727270980594891 0.2961365920556362 0.2961365920556362 0.2961365920556362 0.2961365920556362 0.2163041916881799 0.2163041916881799 0.2163041916881799 0.2163041916881799 
0.1341021396350482 0.1341021396350482 0.1341021396350482 0.1341021396350482 0.050429383616844 0.050429383616844 0.050429383616844 0.050429383616844 -0.03379619496855038 
-0.03379619496855038 -0.03379619496855038 -0.03379619496855038 -0.1176486634209852 -0.1176486634209852 -0.1176486634209852 -0.1176486634209852 -0.2002068252627021 -0.2002068252627021 
-0.2002068252627021 -0.2002068252627021 -0.2805663348787379 -0.2805663348787379 -0.2805663348787379 -0.2805663348787379 -0.357849424614285 -0.357849424614285 -0.357849424614285 
-0.357849424614285 -0.4312126006963329 -0.4312126006963329 -0.4312126006963329 -0.4312126006963329 -0.4998539717686319 -0.4998539717686319 -0.4998539717686319 -0.4998539717686319 
-0.5630214746769517 -0.5630214746769517 -0.5630214746769517 -0.5630214746769517 -0.620021907748852 -0.620021907748852 -0.620021907748852 -0.620021907748852 -0.6702297059562047 
-0.6702297059562047 -0.6702297059562047 -0.6702297059562047 -0.7130944302139668 -0.7130944302139668 -0.7130944302139668 -0.7130944302139668 -0.7481465323842197 -0.7481465323842197 
-0.7481465323842197 -0.7481465323842197 -0.7750016335751493 -0.7750016335751493 -0.7750016335751493 -0.7750016335751493 -0.7933640856022121 -0.7933640856022121 -0.7933640856022121 
-0.7933640856022121 -0.8030311940919096 -0.8030311940919096 -0.8030311940919096 -0.8030311940919096 -0.8038978635505571 -0.8038978635505571 -0.8038978635505571 -0.8038978635505571 
-0.7959563322702072 -0.7959563322702072 -0.7959563322702072 -0.7959563322702072 -0.7792966564189399 -0.7792966564189399 -0.7792966564189399 -0.7792966564189399 -0.7541104200988685 
-0.7541104200988685 -0.7541104200988685 -0.7541104200988685 -0.7206943413977525 -0.7206943413977525 -0.7206943413977525 -0.7206943413977525 -0.6794511699489557 -0.6794511699489557 
-0.6794511699489557 -0.6794511699489557 -0.6308854580168436 -0.6308854580168436 -0.6308854580168436 -0.6308854580168436 -0.5755941695846154 -0.5755941695846154 -0.5755941695846154 
-0.5755941695846154 -0.5142496607926255 -0.5142496607926255 -0.5142496607926255 -0.5142496607926255 -0.447574983241035 -0.447574983241035 -0.447574983241035 -0.447574983241035 
-0.3763141970404833 -0.3763141970404833 -0.3763141970404833 -0.3763141970404833 -0.3012032306774698 -0.3012032306774698 -0.3012032306774698 -0.3012032306774698 -0.2229489411953601 
-0.2229489411953601 -0.2229489411953601 -0.2229489411953601 -0.1422236852555029 -0.1422236852555029 -0.1422236852555029 -0.1422236852555029 -0.05967968871163038 -0.05967968871163038 
-0.05967968871163038 -0.05967968871163038 0.0240180473297573 0.0240180473297573 0.0240180473297573 0.0240180473297573 0.1081479992501621 0.1081479992501621 0.1081479992501621 
0.1081479992501621 0.1918907212377284 0.1918907212377284 0.1918907212377284 0.1918907212377284 0.2743038717043946 0.2743038717043946 0.2743038717043946 0.2743038717043946 
0.3543279153976165 0.3543279153976165 0.3543279153976165 0.3543279153976165 0.4308186582272776 0.4308186582272776 0.4308186582272776 0.4308186582272776 0.5026269733692714 
0.5026269733692714 0.5026269733692714 0.5026269733692714 0.5686445108827072 0.5686445108827072 0.5686445108827072 0.5686445108827072 0.627902502254361 0.627902502254361 
0.627902502254361 0.627902502254361 0.6800320806029239 0.6800320806029239 0.6800320806029239 0.6800320806029239 0.7213728701649906 0.7213728701649906 0.7213728701649906 
0.7213728701649906 0.7708057765021313 0.7708057765021313 0.7708057765021313 0.7708057765021313 0.8375501182702787 0.8375501182702787 0.8375501182702787 0.8375501182702787 
0.8466671745941655 0.8466671745941655 0.8466671745941655 0.8466671745941655 0.8539020184213851 0.8539020184213851 0.8539020184213851 0.8539020184213851 0.8538016289562523 
0.8538016289562523 0.8538016289562523 0.8538016289562523 0.8449962354110125 0.8449962354110125 0.8449962354110125 0.8449962354110125 0.8272093632078779 0.8272093632078779 
0.8272093632078779 0.8272093632078779 0.8004970362108534 0.8004970362108534 0.8004970362108534 0.8004970362108534 0.7650709445943994 0.7650709445943994 0.7650709445943994 
0.7650709445943994 0.7212651854771109 0.7212651854771109 0.7212651854771109 0.7212651854771109 0.6695299793851068 0.6695299793851068 0.6695299793851068 0.6695299793851068 
0.6104237273807365 0.6104237273807365 0.6104237273807365 0.6104237273807365 0.5446002203269138 0.5446002203269138 0.5446002203269138 0.5446002203269138 0.4727934201424951 
0.4727934201424951 0.4727934201424951 0.4727934201424951 0.3958021889292713 0.3958021889292713 0.3958021889292713 0.3958021889292713 0.3144769445534286 0.3144769445534286 
0.3144769445534286 0.3144769445534286 0.2297095189708749 0.2297095189708749 0.2297095189708749 0.2297095189708749 0.1424260715146664 0.1424260715146664 0.1424260715146664 
0.1424260715146664 0.05358094088883796 0.05358094088883796 0.05358094088883796 0.05358094088883796 -0.03585145823739021 -0.03585145823739021 -0.03585145823739021 -0.03585145823739021 
-0.1248880890236889 -0.1248880890236889 -0.1248880890236889 -0.1248880890236889 -0.2125508366079052 -0.2125508366079052 -0.2125508366079052 -0.2125508366079052 -0.2978793969859057 
-0.2978793969859057 -0.2978793969859057 -0.2978793969859057 -0.3799416587701203 -0.3799416587701203 -0.3799416587701203 -0.3799416587701203 -0.4578419206027218 -0.4578419206027218 
-0.4578419206027218 -0.4578419206027218 -0.5307286922284653 -0.5307286922284653 -0.5307286922284653 -0.5307286922284653 -0.597803424155628 -0.597803424155628 -0.597803424155628 
-0.597803424155628 -0.6583300762005266 -0.6583300762005266 -0.6583300762005266 -0.6583300762005266 -0.7116443993965227 -0.7116443993965227 -0.7116443993965227 -0.7116443993965227 
-0.7571618524253063 -0.7571618524253063 -0.7571618524253063 -0.7571618524253063 -0.7943837104529564 -0.7943837104529564 -0.7943837104529564 -0.7943837104529564 -0.8229016846731123 
-0.8229016846731123 -0.8229016846731123 -0.8229016846731123 -0.8424020533897143 -0.8424020533897143 -0.8424020533897143 -0.8424020533897143 -0.8526700784398134 -0.8526700784398134 
-0.8526700784398134 -0.8526700784398134 -0.8535936544018093 -0.8535936544018093 -0.8535936544018093 -0.8535936544018093 -0.8451644266799587 -0.8451644266799587 -0.8451644266799587 
-0.8451644266799587 -0.8274784943662056 -0.8274784943662056 -0.8274784943662056 -0.8274784943662056 -0.8007393146335819 -0.8007393146335819 -0.8007393146335819 -0.8007393146335819 
-0.7652616187496039 -0.7652616187496039 -0.7652616187496039 -0.7652616187496039 -0.7214723247282763 -0.7214723247282763 -0.7214723247282763 -0.7214723247282763 -0.6699068983049454 
-0.6699068983049454 -0.6699068983049454 -0.6699068983049454 -0.6111992024507407 -0.6111992024507407 -0.6111992024507407 -0.6111992024507407 -0.5460632744310564 -0.5460632744310564 
-0.5460632744310564 -0.5460632744310564 -0.4752671435607665 -0.4752671435607665 -0.4752671435607665 -0.4752671435607665 -0.3996012588329696 -0.3996012588329696 -0.3996012588329696 
-0.3996012588329696 -0.3198475404833785 -0.3198475404833785 -0.3198475404833785 -0.3198475404833785 -0.2367570388531669 -0.2367570388531669 -0.2367570388531669 -0.2367570388531669 
-0.1510440079209754 -0.1510440079209754 -0.1510440079209754 -0.1510440079209754 -0.06340099393249424 -0.06340099393249424 -0.06340099393249424 -0.06340099393249424 0.02546633102251658 
0.02546633102251658 0.02546633102251658 0.02546633102251658 0.1147926918646442 0.1147926918646442 0.1147926918646442 0.1147926918646442 0.2037090746082661 0.2037090746082661 
0.2037090746082661 0.2037090746082661 0.2912159171922872 0.2912159171922872 0.2912159171922872 0.2912159171922872 0.3761888387635535 0.3761888387635535 0.3761888387635535 
0.3761888387635535 0.4574129739909458 0.4574129739909458 0.4574129739909458 0.4574129739909458 0.5336674949914264 0.5336674949914264 0.5336674949914264 0.5336674949914264 
0.6037744864392043 0.6037744864392043 0.6037744864392043 0.6037744864392043 0.6667040652090059 0.6667040652090059 0.6667040652090059 0.6667040652090059 0.7220606297494029 
0.7220606297494029 0.7220606297494029 0.7220606297494029 0.7659748652770251 0.7659748652770251 0.7659748652770251 0.7659748652770251 0.8184309782236495 0.8184309782236495 
0.8184309782236495 0.8184309782236495 0.8773267616816405 0.8773267616816405 0.8773267616816405 0.8773267616816405 0.8868828687867225 0.8868828687867225 0.8868828687867225 
0.8868828687867225 0.8944718667500253 0.8944718667500253 0.8944718667500253 0.8944718667500253 0.8943697192344852 0.8943697192344852 0.8943697192344852 0.8943697192344852 
0.8851398864805433 0.8851398864805433 0.8851398864805433 0.8851398864805433 0.866498871356826 0.866498871356826 0.866498871356826 0.866498871356826 0.838511758085995 
0.838511758085995 0.838511758085995 0.838511758085995 0.8014031079919711 0.8014031079919711 0.8014031079919711 0.8014031079919711 0.7555220862601495 0.7555220862601495 
0.7555220862601495 0.7555220862601495 0.7013376229141208 0.7013376229141208 0.7013376229141208 0.7013376229141208 0.6394319858569925 0.6394319858569925 0.6394319858569925 
0.6394319858569925 0.5704884037125899 0.5704884037125899 0.5704884037125899 0.5704884037125899 0.4952752375599221 0.4952752375599221 0.4952752375599221 0.4952752375599221 
0.4146295894723049 0.4146295894723049 0.4146295894723049 0.4146295894723049 0.3294428508613443 0.3294428508613443 0.3294428508613443 0.3294428508613443 0.24064973245231 
0.24064973245231 0.24064973245231 0.24064973245231 0.1492206903686153 0.1492206903686153 0.1492206903686153 0.1492206903686153 0.05615549562387516 0.05615549562387516 
0.05615549562387516 0.05615549562387516 -0.03752516393734923 -0.03752516393734923 -0.03752516393734923 -0.03752516393734923 -0.1307915843231328 -0.1307915843231328 -0.1307915843231328 
-0.1307915843231328 -0.2226191806764369 -0.2226191806764369 -0.2226191806764369 -0.2226191806764369 -0.3120019863660719 -0.3120019863660719 -0.3120019863660719 -0.3120019863660719 
-0.3979635530142261 -0.3979635530142261 -0.3979635530142261 -0.3979635530142261 -0.4795655829480572 -0.4795655829480572 -0.4795655829480572 -0.4795655829480572 -0.5559161119471708 
-0.5559161119471708 -0.5559161119471708 -0.5559161119471708 -0.6261786494283215 -0.6261786494283215 -0.6261786494283215 -0.6261786494283215 -0.6895821846990693 -0.6895821846990693 
-0.6895821846990693 -0.6895821846990693 -0.7454308811343673 -0.7454308811343673 -0.7454308811343673 -0.7454308811343673 -0.7931123920396913 -0.7931123920396913 -0.7931123920396913 
-0.7931123920396913 -0.8321042204821256 -0.8321042204821256 -0.8321042204821256 -0.8321042204821256 -0.8619786002510305 -0.8619786002510305 -0.8619786002510305 -0.8619786002510305 
-0.8824069324367494 -0.8824069324367494 -0.8824069324367494 -0.8824069324367494 -0.8931644984340821 -0.8931644984340821 -0.8931644984340821 -0.8931644984340821 -0.8941340372622114 
-0.8941340372622114 -0.8941340372622114 -0.8941340372622114 -0.8853071339597741 -0.8853071339597741 -0.8853071339597741 -0.8853071339597741 -0.866784630266082 -0.866784630266082 
-0.866784630266082 -0.866784630266082 -0.8387793088866223 -0.8387793088866223 -0.8387793088866223 -0.8387793088866223 -0.8016202584790324 -0.8016202584790324 -0.8016202584790324 
-0.8016202584790324 -0.7557541760460786 -0.7557541760460786 -0.7557541760460786 -0.7557541760460786 -0.7017416632944795 -0.7017416632944795 -0.7017416632944795 -0.7017416632944795 
-0.6402466454516011 -0.6402466454516011 -0.6402466454516011 -0.6402466454516011 -0.5720172181663987 -0.5720172181663987 -0.5720172181663987 -0.5720172181663987 -0.497858188688232 
-0.497858188688232 -0.497858188688232 -0.497858188688232 -0.4185979714607833 -0.4185979714607833 -0.4185979714607833 -0.4185979714607833 -0.3350561348835472 -0.3350561348835472 
-0.3350561348835472 -0.3350561348835472 -0.2480199180201138 -0.2480199180201138 -0.2480199180201138 -0.2480199180201138 -0.1582378715003308 -0.1582378715003308 -0.1582378715003308 
-0.1582378715003308 -0.06643550082733424 -0.06643550082733424 -0.06643550082733424 -0.06643550082733424 0.02664836188089306 0.02664836188089306 0.02664836188089306 0.02664836188089306 
0.1202128683260108 0.1202128683260108 0.1202128683260108 0.1202128683260108 0.2133487698700229 0.2133487698700229 0.2133487698700229 0.2133487698700229 0.3050100642215277 
0.3050100642215277 0.3050100642215277 0.3050100642215277 0.3940196799855476 0.3940196799855476 0.3940196799855476 0.3940196799855476 0.479105227014053 0.479105227014053 
0.479105227014053 0.479105227014053 0.5589873699850465 0.5589873699850465 0.5589873699850465 0.5589873699850465 0.6324313503264021 0.6324313503264021 0.6324313503264021 
0.6324313503264021 0.6983571576775558 0.6983571576775558 0.6983571576775558 0.6983571576775558 0.7563473541886691 0.7563473541886691 0.7563473541886691 0.7563473541886691 
0.802357981340193 0.802357981340193 0.802357981340193 0.802357981340193 0.8572960519673699 0.8572960519673699 0.8572960519673699 0.8572960519673699 0.9076911778130032 
0.9076911778130032 0.9076911778130032 0.9076911778130032 0.9175782900479109 0.9175782900479109 0.9175782900479109 0.9175782900479109 0.9254345631393162 0.9254345631393162 
0.9254345631393162 0.9254345631393162 0.9253352390233569 0.9253352390233569 0.9253352390233569 0.9253352390233569 0.9157895465796784 0.9157895465796784 0.9157895465796784 
0.9157895465796784 0.8965025113392482 0.8965025113392482 0.8965025113392482 0.8965025113392482 0.8675428878156426 0.8675428878156426 0.8675428878156426 0.8675428878156426 
0.8291458798302576 0.8291458798302576 0.8291458798302576 0.8291458798302576 0.7816750755835856 0.7816750755835856 0.7816750755835856 0.7816750755835856 0.7256163007302716 
0.7256163007302716 0.7256163007302716 0.7256163007302716 0.6615715309560342 0.6615715309560342 0.6615715309560342 0.6615715309560342 0.5902464678664854 0.5902464678664854 
0.5902464678664854 0.5902464678664854 0.5124349242118404 0.5124349242118404 0.5124349242118404 0.5124349242118404 0.429002204084291 0.429002204084291 0.429002204084291 
0.429002204084291 0.340870227451215 0.340870227451215 0.340870227451215 0.340870227451215 0.2490060454699927 0.2490060454699927 0.2490060454699927 0.2490060454699927 
0.1544138230326947 0.1544138230326947 0.1544138230326947 0.1544138230326947 0.05812806725167811 0.05812806725167811 0.05812806725167811 0.05812806725167811 -0.03879510241116877 