Title = Result/Linear_Advection_2D/FVM/MLP_u1_Least_Square/Sine_Wave_2D/Quad60/
FileType = Solution
Variables = q
Zone T = Result/Linear_Advection_2D/FVM/MLP_u1_Least_Square/Sine_Wave_2D/Quad60/
ZoneType = FETriangle
Nodes = 14400
Elements = 7200
DataPacking = Block
StrandID = 15
SolutionTime = 1.4
-0.5870707840837299 -0.5870707840837299 -0.5870707840837299 -0.5870707840837299 -0.6274461831242848 -0.6274461831242848 -0.6274461831242848 -0.6274461831242848 -0.6829429416525415 -0.6829429416525415 
-0.6829429416525415 -0.6829429416525415 -0.7362406679260487 -0.7362406679260487 -0.7362406679260487 -0.7362406679260487 -0.7827357890916464 -0.7827357890916464 -0.7827357890916464 
-0.7827357890916464 -0.8209490503644392 -0.8209490503644392 -0.8209490503644392 -0.8209490503644392 -0.8502366062521969 -0.8502366062521969 -0.8502366062521969 -0.8502366062521969 
-0.8702212899074591 -0.8702212899074591 -0.8702212899074591 -0.8702212899074591 -0.8806499696191368 -0.8806499696191368 -0.8806499696191368 -0.8806499696191368 -0.8814098349106307 
-0.8814098349106307 -0.8814098349106307 -0.8814098349106307 -0.8725261623526893 -0.8725261623526893 -0.8725261623526893 -0.8725261623526893 -0.8540750129537017 -0.8540750129537017 
-0.8540750129537017 -0.8540750129537017 -0.8262686042914372 -0.8262686042914372 -0.8262686042914372 -0.8262686042914372 -0.7894325684183796 -0.7894325684183796 -0.7894325684183796 
-0.7894325684183796 -0.744005745208059 -0.744005745208059 -0.744005745208059 -0.744005745208059 -0.6905455416614276 -0.6905455416614276 -0.6905455416614276 -0.6905455416614276 
-0.6297194315484603 -0.6297194315484603 -0.6297194315484603 -0.6297194315484603 -0.5622883403523331 -0.5622883403523331 -0.5622883403523331 -0.5622883403523331 -0.4890756831732259 
-0.4890756831732259 -0.4890756831732259 -0.4890756831732259 -0.4109245796907557 -0.4109245796907557 -0.4109245796907557 -0.4109245796907557 -0.3286534441599261 -0.3286534441599261 
-0.3286534441599261 -0.3286534441599261 -0.2430218203590489 -0.2430218203590489 -0.2430218203590489 -0.2430218203590489 -0.1547204512954649 -0.1547204512954649 -0.1547204512954649 
-0.1547204512954649 -0.06439463248410786 -0.06439463248410786 -0.06439463248410786 -0.06439463248410786 0.0273001415325949 0.0273001415325949 0.0273001415325949 0.0273001415325949 
0.1196240874375772 0.1196240874375772 0.1196240874375772 0.1196240874375772 0.2116845823975027 0.2116845823975027 0.2116845823975027 0.2116845823975027 0.3023995406524524 
0.3023995406524524 0.3023995406524524 0.3023995406524524 0.3905115601889277 0.3905115601889277 0.3905115601889277 0.3905115601889277 0.4746561721309779 0.4746561721309779 
0.4746561721309779 0.4746561721309779 0.5534695320796247 0.5534695320796247 0.5534695320796247 0.5534695320796247 0.6257071808870689 0.6257071808870689 0.6257071808870689 
0.6257071808870689 0.6903414097287859 0.6903414097287859 0.6903414097287859 0.6903414097287859 0.7466119415448518 0.7466119415448518 0.7466119415448518 0.7466119415448518 
0.7940201259266995 0.7940201259266995 0.7940201259266995 0.7940201259266995 0.8322781581243324 0.8322781581243324 0.8322781581243324 0.8322781581243324 0.8612398908649745 
0.8612398908649745 0.8612398908649745 0.8612398908649745 0.8808107085702543 0.8808107085702543 0.8808107085702543 0.8808107085702543 0.890893373911299 0.890893373911299 
0.890893373911299 0.890893373911299 0.8914254718417929 0.8914254718417929 0.8914254718417929 0.8914254718417929 0.8823988856873168 0.8823988856873168 0.8823988856873168 
0.8823988856873168 0.8638161047387093 0.8638161047387093 0.8638161047387093 0.8638161047387093 0.8358042747532424 0.8358042747532424 0.8358042747532424 0.8358042747532424 
0.7986159310844344 0.7986159310844344 0.7986159310844344 0.7986159310844344 0.7526309394314352 0.7526309394314352 0.7526309394314352 0.7526309394314352 0.6983536792726152 
0.6983536792726152 0.6983536792726152 0.6983536792726152 0.6363939431331123 0.6363939431331123 0.6363939431331123 0.6363939431331123 0.5674495812587589 0.5674495812587589 
0.5674495812587589 0.5674495812587589 0.4922908123130056 0.4922908123130056 0.4922908123130056 0.4922908123130056 0.4117478175610588 0.4117478175610588 0.4117478175610588 
0.4117478175610588 0.326702821981076 0.326702821981076 0.326702821981076 0.326702821981076 0.2380833590585434 0.2380833590585434 0.2380833590585434 0.2380833590585434 
0.1468571376138349 0.1468571376138349 0.1468571376138349 0.1468571376138349 0.054014859542013 0.054014859542013 0.054014859542013 0.054014859542013 -0.03939639541027054 
-0.03939639541027054 -0.03939639541027054 -0.03939639541027054 -0.1324997585825768 -0.1324997585825768 -0.1324997585825768 -0.1324997585825768 -0.2235704089686168 -0.2235704089686168 
-0.2235704089686168 -0.2235704089686168 -0.3149021584195576 -0.3149021584195576 -0.3149021584195576 -0.3149021584195576 -0.3902930777927713 -0.3902930777927713 -0.3902930777927713 
-0.3902930777927713 -0.5179215999860063 -0.5179215999860063 -0.5179215999860063 -0.5179215999860063 -0.5685338789394965 -0.5685338789394965 -0.5685338789394965 -0.5685338789394965 
-0.6080514174120301 -0.6080514174120301 -0.6080514174120301 -0.6080514174120301 -0.661759980031738 -0.661759980031738 -0.661759980031738 -0.661759980031738 -0.7132856763187455 
-0.7132856763187455 -0.7132856763187455 -0.7132856763187455 -0.7582479246845177 -0.7582479246845177 -0.7582479246845177 -0.7582479246845177 -0.7952245956518884 -0.7952245956518884 
-0.7952245956518884 -0.7952245956518884 -0.8235791548220814 -0.8235791548220814 -0.8235791548220814 -0.8235791548220814 -0.8429346858418592 -0.8429346858418592 -0.8429346858418592 
-0.8429346858418592 -0.853047512895222 -0.853047512895222 -0.853047512895222 -0.853047512895222 -0.8538021464410407 -0.8538021464410407 -0.8538021464410407 -0.8538021464410407 
-0.8451968754021859 -0.8451968754021859 -0.8451968754021859 -0.8451968754021859 -0.8273272253193782 -0.8273272253193782 -0.8273272253193782 -0.8273272253193782 -0.8003954825882104 
-0.8003954825882104 -0.8003954825882104 -0.8003954825882104 -0.7647148627651281 -0.7647148627651281 -0.7647148627651281 -0.7647148627651281 -0.7207126314399392 -0.7207126314399392 
-0.7207126314399392 -0.7207126314399392 -0.6689285655838682 -0.6689285655838682 -0.6689285655838682 -0.6689285655838682 -0.6100091137182817 -0.6100091137182817 -0.6100091137182817 
-0.6100091137182817 -0.544691221442168 -0.544691221442168 -0.544691221442168 -0.544691221442168 -0.4737718788950264 -0.4737718788950264 -0.4737718788950264 -0.4737718788950264 
-0.3980676078523505 -0.3980676078523505 -0.3980676078523505 -0.3980676078523505 -0.3183714428685375 -0.3183714428685375 -0.3183714428685375 -0.3183714428685375 -0.2354197230401335 
-0.2354197230401335 -0.2354197230401335 -0.2354197230401335 -0.1498821371636573 -0.1498821371636573 -0.1498821371636573 -0.1498821371636573 -0.06238414223413563 -0.06238414223413563 
-0.06238414223413563 -0.06238414223413563 0.02643908037865765 0.02643908037865765 0.02643908037865765 0.02643908037865765 0.1158706977757097 0.1158706977757097 0.1158706977757097 
0.1158706977757097 0.2050458480731223 0.2050458480731223 0.2050458480731223 0.2050458480731223 0.2929164615949355 0.2929164615949355 0.2929164615949355 0.2929164615949355 
0.3782652588825262 0.3782652588825262 0.3782652588825262 0.3782652588825262 0.4597717676196977 0.4597717676196977 0.4597717676196977 0.4597717676196977 0.5361160660748137 
0.5361160660748137 0.5361160660748137 0.5361160660748137 0.6060931335998304 0.6060931335998304 0.6060931335998304 0.6060931335998304 0.6687068925407194 0.6687068925407194 
0.6687068925407194 0.6687068925407194 0.7232196048951329 0.7232196048951329 0.7232196048951329 0.7232196048951329 0.7691471516711492 0.7691471516711492 0.7691471516711492 
0.7691471516711492 0.8062105978662869 0.8062105978662869 0.8062105978662869 0.8062105978662869 0.8342646939695553 0.8342646939695553 0.8342646939695553 0.8342646939695553 
0.8532187200224524 0.8532187200224524 0.8532187200224524 0.8532187200224524 0.8629894334489197 0.8629894334489197 0.8629894334489197 0.8629894334489197 0.8635147917510306 
0.8635147917510306 0.8635147917510306 0.8635147917510306 0.8547654307213933 0.8547654307213933 0.8547654307213933 0.8547654307213933 0.8367645777222613 0.8367645777222613 
0.8367645777222613 0.8367645777222613 0.8096322993193847 0.8096322993193847 0.8096322993193847 0.8096322993193847 0.7736097608491734 0.7736097608491734 0.7736097608491734 
0.7736097608491734 0.7290664085974524 0.7290664085974524 0.7290664085974524 0.7290664085974524 0.6764902542537929 0.6764902542537929 0.6764902542537929 0.6764902542537929 
0.6164720368273637 0.6164720368273637 0.6164720368273637 0.6164720368273637 0.54968809721377 0.54968809721377 0.54968809721377 0.54968809721377 0.4768843514410241 
0.4768843514410241 0.4768843514410241 0.4768843514410241 0.3988648368947784 0.3988648368947784 0.3988648368947784 0.3988648368947784 0.3164839562992062 0.3164839562992062 
0.3164839562992062 0.3164839562992062 0.2306401165364978 0.2306401165364978 0.2306401165364978 0.2306401165364978 0.1422707291113592 0.1422707291113592 0.1422707291113592 
0.1422707291113592 0.05233592544206157 0.05233592544206157 0.05233592544206157 0.05233592544206157 -0.03815118620720848 -0.03815118620720848 -0.03815118620720848 -0.03815118620720848 
-0.1283346124903307 -0.1283346124903307 -0.1283346124903307 -0.1283346124903307 -0.216573881542229 -0.216573881542229 -0.216573881542229 -0.216573881542229 -0.304953866127495 
-0.304953866127495 -0.304953866127495 -0.304953866127495 -0.3783639242378936 -0.3783639242378936 -0.3783639242378936 -0.3783639242378936 -0.5010607515758307 -0.5010607515758307 
-0.5010607515758307 -0.5010607515758307 -0.537019682705502 -0.537019682705502 -0.537019682705502 -0.537019682705502 -0.574385664550207 -0.574385664550207 -0.574385664550207 
-0.574385664550207 -0.625263674972082 -0.625263674972082 -0.625263674972082 -0.625263674972082 -0.6739940024473055 -0.6739940024473055 -0.6739940024473055 -0.6739940024473055 
-0.7164662178170947 -0.7164662178170947 -0.7164662178170947 -0.7164662178170947 -0.7513713277048137 -0.7513713277048137 -0.7513713277048137 -0.7513713277048137 -0.7781288996976434 
-0.7781288996976434 -0.7781288996976434 -0.7781288996976434 -0.7963935340450586 -0.7963935340450586 -0.7963935340450586 -0.7963935340450586 -0.8059417950119896 -0.8059417950119896 
-0.8059417950119896 -0.8059417950119896 -0.8066589903038796 -0.8066589903038796 -0.8066589903038796 -0.8066589903038796 -0.7985355595982379 -0.7985355595982379 -0.7985355595982379 
-0.7985355595982379 -0.781659747375788 -0.781659747375788 -0.781659747375788 -0.781659747375788 -0.7562211347033956 -0.7562211347033956 -0.7562211347033956 -0.7562211347033956 
-0.7225154843655526 -0.7225154843655526 -0.7225154843655526 -0.7225154843655526 -0.6809458490621428 -0.6809458490621428 -0.6809458490621428 -0.6809458490621428 -0.6320223943783164 
-0.6320223943783164 -0.6320223943783164 -0.6320223943783164 -0.5763564606329769 -0.5763564606329769 -0.5763564606329769 -0.5763564606329769 -0.5146442267965387 -0.5146442267965387 
-0.5146442267965387 -0.5146442267965387 -0.4476386574882193 -0.4476386574882193 -0.4476386574882193 -0.4476386574882193 -0.3761116171303901 -0.3761116171303901 -0.3761116171303901 
-0.3761116171303901 -0.3008132133340363 -0.3008132133340363 -0.3008132133340363 -0.3008132133340363 -0.2224399246437298 -0.2224399246437298 -0.2224399246437298 -0.2224399246437298 
-0.1416246026388051 -0.1416246026388051 -0.1416246026388051 -0.1416246026388051 -0.05895762169459526 -0.05895762169459526 -0.05895762169459526 -0.05895762169459526 0.0249615154576748 
0.0249615154576748 0.0249615154576748 0.0249615154576748 0.1094555237114795 0.1094555237114795 0.1094555237114795 0.1094555237114795 0.1937066361399665 0.1937066361399665 
0.1937066361399665 0.1937066361399665 0.27672420794493 0.27672420794493 0.27672420794493 0.27672420794493 0.3573588333792709 0.3573588333792709 0.3573588333792709 
0.3573588333792709 0.4343647009072117 0.4343647009072117 0.4343647009072117 0.4343647009072117 0.5064965062785511 0.5064965062785511 0.5064965062785511 0.5064965062785511 
0.5726161525383169 0.5726161525383169 0.5726161525383169 0.5726161525383169 0.6317811531797959 0.6317811531797959 0.6317811531797959 0.6317811531797959 0.6832921201997493 
0.6832921201997493 0.6832921201997493 0.6832921201997493 0.7266897830482855 0.7266897830482855 0.7266897830482855 0.7266897830482855 0.7617095316719987 0.7617095316719987 
0.7617095316719987 0.7617095316719987 0.788212890951282 0.788212890951282 0.788212890951282 0.788212890951282 0.8061167755446217 0.8061167755446217 0.8061167755446217 
0.8061167755446217 0.8153493713094121 0.8153493713094121 0.8153493713094121 0.8153493713094121 0.815850042236052 0.815850042236052 0.815850042236052 0.815850042236052 
0.8075869627463528 0.8075869627463528 0.8075869627463528 0.8075869627463528 0.7905829912021836 0.7905829912021836 0.7905829912021836 0.7905829912021836 0.7649512995255683 
0.7649512995255683 0.7649512995255683 0.7649512995255683 0.7309199989787245 0.7309199989787245 0.7309199989787245 0.7309199989787245 0.6888374490142467 0.6888374490142467 
0.6888374490142467 0.6888374490142467 0.6391647887087676 0.6391647887087676 0.6391647887087676 0.6391647887087676 0.5824608716139614 0.5824608716139614 0.5824608716139614 
0.5824608716139614 0.5193648722293913 0.5193648722293913 0.5193648722293913 0.5193648722293913 0.4505814112567086 0.4505814112567086 0.4505814112567086 0.4505814112567086 
0.3768697785273845 0.3768697785273845 0.3768697785273845 0.3768697785273845 0.2990368264515847 0.2990368264515847 0.2990368264515847 0.2990368264515847 0.2179312414024447 
0.2179312414024447 0.2179312414024447 0.2179312414024447 0.1344389100883149 0.1344389100883149 0.1344389100883149 0.1344389100883149 0.04946739345934223 0.04946739345934223 
0.04946739345934223 0.04946739345934223 -0.03602582592350221 -0.03602582592350221 -0.03602582592350221 -0.03602582592350221 -0.1212319167877848 -0.1212319167877848 -0.1212319167877848 
-0.1212319167877848 -0.204600904749591 -0.204600904749591 -0.204600904749591 -0.204600904749591 -0.2881074701651527 -0.2881074701651527 -0.2881074701651527 -0.2881074701651527 
-0.3574390158777966 -0.3574390158777966 -0.3574390158777966 -0.3574390158777966 -0.4733982630293139 -0.4733982630293139 -0.4733982630293139 -0.4733982630293139 -0.4982832973869052 
-0.4982832973869052 -0.4982832973869052 -0.4982832973869052 -0.5328961810774417 -0.5328961810774417 -0.5328961810774417 -0.5328961810774417 -0.5801180606614914 -0.5801180606614914 
-0.5801180606614914 -0.5801180606614914 -0.6253873296156532 -0.6253873296156532 -0.6253873296156532 -0.6253873296156532 -0.6648378878711048 -0.6648378878711048 -0.6648378878711048 
-0.6648378878711048 -0.6972419386468882 -0.6972419386468882 -0.6972419386468882 -0.6972419386468882 -0.7220649262835007 -0.7220649262835007 -0.7220649262835007 -0.7220649262835007 
-0.7389971574774387 -0.7389971574774387 -0.7389971574774387 -0.7389971574774387 -0.7478433111746724 -0.7478433111746724 -0.7478433111746724 -0.7478433111746724 -0.7485023616703188 
-0.7485023616703188 -0.7485023616703188 -0.7485023616703188 -0.7409641132879701 -0.7409641132879701 -0.7409641132879701 -0.7409641132879701 -0.7253089033414765 -0.7253089033414765 
-0.7253089033414765 -0.7253089033414765 -0.7017109416458418 -0.7017109416458418 -0.7017109416458418 -0.7017109416458418 -0.6704419443939467 -0.6704419443939467 -0.6704419443939467 
-0.6704419443939467 -0.6318743842029867 -0.6318743842029867 -0.6318743842029867 -0.6318743842029867 -0.5864812002591567 -0.5864812002591567 -0.5864812002591567 -0.5864812002591567 
-0.5348294686818524 -0.5348294686818524 -0.5348294686818524 -0.5348294686818524 -0.4775653195978471 -0.4775653195978471 -0.4775653195978471 -0.4775653195978471 -0.4153880806711026 
-0.4153880806711026 -0.4153880806711026 -0.4153880806711026 -0.349015269613813 -0.349015269613813 -0.349015269613813 -0.349015269613813 -0.279144401461446 -0.279144401461446 
-0.279144401461446 -0.279144401461446 -0.2064223627265196 -0.2064223627265196 -0.2064223627265196 -0.2064223627265196 -0.1314354761021895 -0.1314354761021895 -0.1314354761021895 
-0.1314354761021895 -0.05472973135181201 -0.05472973135181201 -0.05472973135181201 -0.05472973135181201 0.02313967667865064 0.02313967667865064 0.02313967667865064 0.02313967667865064 
0.1015433891995878 0.1015433891995878 0.1015433891995878 0.1015433891995878 0.1797202409804528 0.1797202409804528 0.1797202409804528 0.1797202409804528 0.2567493542554748 
0.2567493542554748 0.2567493542554748 0.2567493542554748 0.3315651823761938 0.3315651823761938 0.3315651823761938 0.3315651823761938 0.403015232412781 0.403015232412781 
0.403015232412781 0.403015232412781 0.4699476555754556 0.4699476555754556 0.4699476555754556 0.4699476555754556 0.5313075525971708 0.5313075525971708 0.5313075525971708 
0.5313075525971708 0.5862181010207852 0.5862181010207852 0.5862181010207852 0.5862181010207852 0.6340261474979477 0.6340261474979477 0.6340261474979477 0.6340261474979477 
0.6743020801746504 0.6743020801746504 0.6743020801746504 0.6743020801746504 0.7067990309362366 0.7067990309362366 0.7067990309362366 0.7067990309362366 0.7313889213051779 
0.7313889213051779 0.7313889213051779 0.7313889213051779 0.7479975800000838 0.7479975800000838 0.7479975800000838 0.7479975800000838 0.7565634639276216 0.7565634639276216 
0.7565634639276216 0.7565634639276216 0.7570313003290169 0.7570313003290169 0.7570313003290169 0.7570313003290169 0.7493685823667354 0.7493685823667354 0.7493685823667354 
0.7493685823667354 0.7335952909520485 0.7335952909520485 0.7335952909520485 0.7335952909520485 0.7098160597246987 0.7098160597246987 0.7098160597246987 0.7098160597246987 
0.6782415311153784 0.6782415311153784 0.6782415311153784 0.6782415311153784 0.6391949289784497 0.6391949289784497 0.6391949289784497 0.6391949289784497 0.593104872427541 
0.593104872427541 0.593104872427541 0.593104872427541 0.5404905296614123 0.5404905296614123 0.5404905296614123 0.5404905296614123 0.4819452881048407 0.4819452881048407 
0.4819452881048407 0.4819452881048407 0.4181227051902768 0.4181227051902768 0.4181227051902768 0.4181227051902768 0.3497266713810255 0.3497266713810255 0.3497266713810255 
0.3497266713810255 0.2775053047930403 0.2775053047930403 0.2775053047930403 0.2775053047930403 0.2022460754548507 0.2022460754548507 0.2022460754548507 0.2022460754548507 
0.1247715811979687 0.1247715811979687 0.1247715811979687 0.1247715811979687 0.04592475494729961 0.04592475494729961 0.04592475494729961 0.04592475494729961 -0.03340561076153503 
-0.03340561076153503 -0.03340561076153503 -0.03340561076153503 -0.1124690313951052 -0.1124690313951052 -0.1124690313951052 -0.1124690313951052 -0.1898283202164021 -0.1898283202164021 
-0.1898283202164021 -0.1898283202164021 -0.2673178017925248 -0.2673178017925248 -0.2673178017925248 -0.2673178017925248 -0.3316288158413246 -0.3316288158413246 -0.3316288158413246 
-0.3316288158413246 -0.439290077841207 -0.439290077841207 -0.439290077841207 -0.439290077841207 -0.4538007930523322 -0.4538007930523322 -0.4538007930523322 -0.4538007930523322 
-0.4853015627343557 -0.4853015627343557 -0.4853015627343557 -0.4853015627343557 -0.5282816282892815 -0.5282816282892815 -0.5282816282892815 -0.5282816282892815 -0.5695115492414257 
-0.5695115492414257 -0.5695115492414257 -0.5695115492414257 -0.6054633518811281 -0.6054633518811281 -0.6054633518811281 -0.6054633518811281 -0.6350006626261454 -0.6350006626261454 
-0.6350006626261454 -0.6350006626261454 -0.6576243031493687 -0.6576243031493687 -0.6576243031493687 -0.6576243031493687 -0.6730492930165696 -0.6730492930165696 -0.6730492930165696 
-0.6730492930165696 -0.6811020912404409 -0.6811020912404409 -0.6811020912404409 -0.6811020912404409 -0.6816962667816386 -0.6816962667816386 -0.6816962667816386 -0.6816962667816386 
-0.6748266575584158 -0.6748266575584158 -0.6748266575584158 -0.6748266575584158 -0.660568648494678 -0.660568648494678 -0.660568648494678 -0.660568648494678 -0.6390806188764612 
-0.6390806188764612 -0.6390806188764612 -0.6390806188764612 -0.6106086105666302 -0.6106086105666302 -0.6106086105666302 -0.6106086105666302 -0.5754899918500744 -0.5754899918500744 
-0.5754899918500744 -0.5754899918500744 -0.5341537512915761 -0.5341537512915761 -0.5341537512915761 -0.5341537512915761 -0.487115245432163 -0.487115245432163 -0.487115245432163 
-0.487115245432163 -0.434962657204284 -0.434962657204284 -0.434962657204284 -0.434962657204284 -0.3783338532560504 -0.3783338532560504 -0.3783338532560504 -0.3783338532560504 
-0.317884332840671 -0.317884332840671 -0.317884332840671 -0.317884332840671 -0.2542511511375114 -0.2542511511375114 -0.2542511511375114 -0.2542511511375114 -0.1880233068263354 
-0.1880233068263354 -0.1880233068263354 -0.1880233068263354 -0.1197321994566082 -0.1197321994566082 -0.1197321994566082 -0.1197321994566082 -0.04987191781327369 -0.04987191781327369 
-0.04987191781327369 -0.04987191781327369 0.02105246839647502 0.02105246839647502 0.02105246839647502 0.02105246839647502 0.09246411888926043 0.09246411888926043 0.09246411888926043 
0.09246411888926043 0.1636639443979442 0.1636639443979442 0.1636639443979442 0.1636639443979442 0.2338098200252119 0.2338098200252119 0.2338098200252119 0.2338098200252119 
0.3019337861296048 0.3019337861296048 0.3019337861296048 0.3019337861296048 0.3669937691389114 0.3669937691389114 0.3669937691389114 0.3669937691389114 0.4279484659815552 
0.4279484659815552 0.4279484659815552 0.4279484659815552 0.4838398375022555 0.4838398375022555 0.4838398375022555 0.4838398375022555 0.5338653855592648 0.5338653855592648 
0.5338653855592648 0.5338653855592648 0.5774226132864839 0.5774226132864839 0.5774226132864839 0.5774226132864839 0.6141138447371517 0.6141138447371517 0.6141138447371517 
0.6141138447371517 0.6437121535819592 0.6437121535819592 0.6437121535819592 0.6437121535819592 0.666102881225075 0.666102881225075 0.666102881225075 0.666102881225075 
0.6812231693788537 0.6812231693788537 0.6812231693788537 0.6812231693788537 0.6890217870015221 0.6890217870015221 0.6890217870015221 0.6890217870015221 0.6894496992752439 
0.6894496992752439 0.6894496992752439 0.6894496992752439 0.6824758876500732 0.6824758876500732 0.6824758876500732 0.6824758876500732 0.6681166021688951 0.6681166021688951 
0.6681166021688951 0.6681166021688951 0.6464652704721036 0.6464652704721036 0.6464652704721036 0.6464652704721036 0.6177130303844736 0.6177130303844736 0.6177130303844736 
0.6177130303844736 0.5821544700471346 0.5821544700471346 0.5821544700471346 0.5821544700471346 0.5401806781884191 0.5401806781884191 0.5401806781884191 0.5401806781884191 
0.4922653298147236 0.4922653298147236 0.4922653298147236 0.4922653298147236 0.4389490737651867 0.4389490737651867 0.4389490737651867 0.4389490737651867 0.3808265160091847 
0.3808265160091847 0.3808265160091847 0.3808265160091847 0.3185376541163882 0.3185376541163882 0.3185376541163882 0.3185376541163882 0.2527631221941884 0.2527631221941884 
0.2527631221941884 0.2527631221941884 0.1842204333459853 0.1842204333459853 0.1842204333459853 0.1842204333459853 0.113660047347747 0.113660047347747 0.113660047347747 
0.113660047347747 0.04185100574276 0.04185100574276 0.04185100574276 0.04185100574276 -0.03039686113792449 -0.03039686113792449 -0.03039686113792449 -0.03039686113792449 
-0.10240108196594 -0.10240108196594 -0.10240108196594 -0.10240108196594 -0.1728534080599807 -0.1728534080599807 -0.1728534080599807 -0.1728534080599807 -0.2434311206038693 
-0.2434311206038693 -0.2434311206038693 -0.2434311206038693 -0.301987393897145 -0.301987393897145 -0.301987393897145 -0.301987393897145 -0.4000748931105239 -0.4000748931105239 
-0.4000748931105239 -0.4000748931105239 -0.4042765406160163 -0.4042765406160163 -0.4042765406160163 -0.4042765406160163 -0.4323409487824905 -0.4323409487824905 -0.4323409487824905 
-0.4323409487824905 -0.4706186807744069 -0.4706186807744069 -0.4706186807744069 -0.4706186807744069 -0.5073368367508007 -0.5073368367508007 -0.5073368367508007 -0.5073368367508007 
-0.5393646584631387 -0.5393646584631387 -0.5393646584631387 -0.5393646584631387 -0.5656900805144625 -0.5656900805144625 -0.5656900805144625 -0.5656900805144625 -0.58586118128654 
-0.58586118128654 -0.58586118128654 -0.58586118128654 -0.5996165723916184 -0.5996165723916184 -0.5996165723916184 -0.5996165723916184 -0.6067980109721254 -0.6067980109721254 
-0.6067980109721254 -0.6067980109721254 -0.6073288344637423 -0.6073288344637423 -0.6073288344637423 -0.6073288344637423 -0.6012071114043712 -0.6012071114043712 -0.6012071114043712 
-0.6012071114043712 -0.5885030923195441 -0.5885030923195441 -0.5885030923195441 -0.5885030923195441 -0.5693601695754164 -0.5693601695754164 -0.5693601695754164 -0.5693601695754164 
-0.5439982057463324 -0.5439982057463324 -0.5439982057463324 -0.5439982057463324 -0.5127169459201072 -0.5127169459201072 -0.5127169459201072 -0.5127169459201072 -0.4758969930572413 
-0.4758969930572413 -0.4758969930572413 -0.4758969930572413 -0.433995726070266 -0.433995726070266 -0.433995726070266 -0.433995726070266 -0.3875362486166047 -0.3875362486166047 
-0.3875362486166047 -0.3875362486166047 -0.3370875947363741 -0.3370875947363741 -0.3370875947363741 -0.3370875947363741 -0.2832357131097166 -0.2832357131097166 -0.2832357131097166 
-0.2832357131097166 -0.2265492391050746 -0.2265492391050746 -0.2265492391050746 -0.2265492391050746 -0.167550832378746 -0.167550832378746 -0.167550832378746 -0.167550832378746 
-0.1067089039127428 -0.1067089039127428 -0.1067089039127428 -0.1067089039127428 -0.04445960978232268 -0.04445960978232268 -0.04445960978232268 -0.04445960978232268 0.01874504575039593 
0.01874504575039593 0.01874504575039593 0.01874504575039593 0.08238168688949071 0.08238168688949071 0.08238168688949071 0.08238168688949071 0.1458156692336502 0.1458156692336502 
0.1458156692336502 0.1458156692336502 0.2082912405206628 0.2082912405206628 0.2082912405206628 0.2082912405206628 0.2689523528417678 0.2689523528417678 0.2689523528417678 
0.2689523528417678 0.3268860249869631 0.3268860249869631 0.3268860249869631 0.3268860249869631 0.3811795582818463 0.3811795582818463 0.3811795582818463 0.3811795582818463 
0.4309846624201825 0.4309846624201825 0.4309846624201825 0.4309846624201825 0.4755793041062733 0.4755793041062733 0.4755793041062733 0.4755793041062733 0.5144128146628288 
0.5144128146628288 0.5144128146628288 0.5144128146628288 0.5471190571109744 0.5471190571109744 0.5471190571109744 0.5471190571109744 0.5734919156020395 0.5734919156020395 
0.5734919156020395 0.5734919156020395 0.5934330932422042 0.5934330932422042 0.5934330932422042 0.5934330932422042 0.6068942056407096 0.6068942056407096 0.6068942056407096 
0.6068942056407096 0.6138361548787898 0.6138361548787898 0.6138361548787898 0.6138361548787898 0.6142176592317345 0.6142176592317345 0.6142176592317345 0.6142176592317345 
0.6080097011706168 0.6080097011706168 0.6080097011706168 0.6080097011706168 0.5952238307254983 0.5952238307254983 0.5952238307254983 0.5952238307254983 0.5759409780334765 
0.5759409780334765 0.5759409780334765 0.5759409780334765 0.55033036258839 0.55033036258839 0.55033036258839 0.55033036258839 0.5186546080174705 0.5186546080174705 
0.5186546080174705 0.5186546080174705 0.4812631953723908 0.4812631953723908 0.4812631953723908 0.4812631953723908 0.4385790636281478 0.4385790636281478 0.4385790636281478 
0.4385790636281478 0.3910838906280837 0.3910838906280837 0.3910838906280837 0.3910838906280837 0.3393062964719956 0.3393062964719956 0.3393062964719956 0.3393062964719956 
0.2838149197585816 0.2838149197585816 0.2838149197585816 0.2838149197585816 0.2252155071819201 0.2252155071819201 0.2252155071819201 0.2252155071819201 0.164148448688034 
0.164148448688034 0.164148448688034 0.164148448688034 0.1012848100473416 0.1012848100473416 0.1012848100473416 0.1012848100473416 0.03731185011567737 0.03731185011567737 
0.03731185011567737 0.03731185011567737 -0.02704884565488901 -0.02704884565488901 -0.02704884565488901 -0.02704884565488901 -0.09119163486999728 -0.09119163486999728 -0.09119163486999728 
-0.09119163486999728 -0.1539532363122977 -0.1539532363122977 -0.1539532363122977 -0.1539532363122977 -0.2168344544532948 -0.2168344544532948 -0.2168344544532948 -0.2168344544532948 
-0.26899809579364 -0.26899809579364 -0.26899809579364 -0.26899809579364 -0.3564037677869056 -0.3564037677869056 -0.3564037677869056 -0.3564037677869056 -0.3503008424864034 
-0.3503008424864034 -0.3503008424864034 -0.3503008424864034 -0.3746263344978699 -0.3746263344978699 -0.3746263344978699 -0.3746263344978699 -0.407797083234074 -0.407797083234074 
-0.407797083234074 -0.407797083234074 -0.4396088537123393 -0.4396088537123393 -0.4396088537123393 -0.4396088537123393 -0.4673554738214024 -0.4673554738214024 -0.4673554738214024 
-0.4673554738214024 -0.4901666311630606 -0.4901666311630606 -0.4901666311630606 -0.4901666311630606 -0.5076522112251712 -0.5076522112251712 -0.5076522112251712 -0.5076522112251712 
-0.5195826421269391 -0.5195826421269391 -0.5195826421269391 -0.5195826421269391 -0.5258163257740498 -0.5258163257740498 -0.5258163257740498 -0.5258163257740498 -0.5262836010915113 
-0.5262836010915113 -0.5262836010915113 -0.5262836010915113 -0.5209819548212244 -0.5209819548212244 -0.5209819548212244 -0.5209819548212244 -0.5099736022726598 -0.5099736022726598 
-0.5099736022726598 -0.5099736022726598 -0.4933850867817201 -0.4933850867817201 -0.4933850867817201 -0.4933850867817201 -0.4714089088286585 -0.4714089088286585 -0.4714089088286585 
-0.4714089088286585 -0.4443057329766289 -0.4443057329766289 -0.4443057329766289 -0.4443057329766289 -0.4124048805649478 -0.4124048805649478 -0.4124048805649478 -0.4124048805649478 
-0.3761013219366462 -0.3761013219366462 -0.3761013219366462 -0.3761013219366462 -0.3358474148957147 -0.3358474148957147 -0.3358474148957147 -0.3358474148957147 -0.2921368081218098 