Title = Result/Linear_Advection_2D/FVM/MLP_u1_Least_Square/Sine_Wave_2D/Quad60/
FileType = Solution
Variables = q
Zone T = Result/Linear_Advection_2D/FVM/MLP_u1_Least_Square/Sine_Wave_2D/Quad60/
ZoneType = FETriangle
Nodes = 14400
Elements = 7200
DataPacking = Block
StrandID = 4
SolutionTime = 0.3
0.7141948581907038 0.7141948581907038 0.7141948581907038 0.7141948581907038 0.7216281115924811 0.7216281115924811 0.7216281115924811 0.7216281115924811 0.727603716859559 0.727603716859559 
0.727603716859559 0.727603716859559 0.7272368335770081 0.7272368335770081 0.7272368335770081 0.7272368335770081 0.7193181872509791 0.7193181872509791 0.7193181872509791 
0.7193181872509791 0.7036049920196692 0.7036049920196692 0.7036049920196692 0.7036049920196692 0.6801983317771225 0.6801983317771225 0.6801983317771225 0.6801983317771225 
0.6493423297628717 0.6493423297628717 0.6493423297628717 0.6493423297628717 0.6113737814500211 0.6113737814500211 0.6113737814500211 0.6113737814500211 0.5666939308328071 
0.5666939308328071 0.5666939308328071 0.5666939308328071 0.5157680383474713 0.5157680383474713 0.5157680383474713 0.5157680383474713 0.4591918905446828 0.4591918905446828 
0.4591918905446828 0.4591918905446828 0.3978140586380974 0.3978140586380974 0.3978140586380974 0.3978140586380974 0.332786205517983 0.332786205517983 0.332786205517983 
0.332786205517983 0.2653687490329465 0.2653687490329465 0.2653687490329465 0.2653687490329465 0.1964762600211014 0.1964762600211014 0.1964762600211014 0.1964762600211014 
0.126241915473313 0.126241915473313 0.126241915473313 0.126241915473313 0.05402187000408918 0.05402187000408918 0.05402187000408918 0.05402187000408918 -0.02098387524753247 
-0.02098387524753247 -0.02098387524753247 -0.02098387524753247 -0.09881727850501881 -0.09881727850501881 -0.09881727850501881 -0.09881727850501881 -0.1781927258587664 -0.1781927258587664 
-0.1781927258587664 -0.1781927258587664 -0.2567126637558989 -0.2567126637558989 -0.2567126637558989 -0.2567126637558989 -0.3317357389740069 -0.3317357389740069 -0.3317357389740069 
-0.3317357389740069 -0.401302839564609 -0.401302839564609 -0.401302839564609 -0.401302839564609 -0.4645483019447195 -0.4645483019447195 -0.4645483019447195 -0.4645483019447195 
-0.5214583110876867 -0.5214583110876867 -0.5214583110876867 -0.5214583110876867 -0.5722876762524942 -0.5722876762524942 -0.5722876762524942 -0.5722876762524942 -0.6170755477568377 
-0.6170755477568377 -0.6170755477568377 -0.6170755477568377 -0.6554997689451276 -0.6554997689451276 -0.6554997689451276 -0.6554997689451276 -0.6870185047746965 -0.6870185047746965 
-0.6870185047746965 -0.6870185047746965 -0.7110964124645571 -0.7110964124645571 -0.7110964124645571 -0.7110964124645571 -0.7273488646910803 -0.7273488646910803 -0.7273488646910803 
-0.7273488646910803 -0.7355650165352141 -0.7355650165352141 -0.7355650165352141 -0.7355650165352141 -0.7356846948991916 -0.7356846948991916 -0.7356846948991916 -0.7356846948991916 
-0.7277509453803011 -0.7277509453803011 -0.7277509453803011 -0.7277509453803011 -0.7118450695810146 -0.7118450695810146 -0.7118450695810146 -0.7118450695810146 -0.6881457095796264 
-0.6881457095796264 -0.6881457095796264 -0.6881457095796264 -0.6569090458516129 -0.6569090458516129 -0.6569090458516129 -0.6569090458516129 -0.6184752232401458 -0.6184752232401458 
-0.6184752232401458 -0.6184752232401458 -0.5732645168563361 -0.5732645168563361 -0.5732645168563361 -0.5732645168563361 -0.5217727595739428 -0.5217727595739428 -0.5217727595739428 
-0.5217727595739428 -0.4645643596709494 -0.4645643596709494 -0.4645643596709494 -0.4645643596709494 -0.4022662072108359 -0.4022662072108359 -0.4022662072108359 -0.4022662072108359 
-0.335560764186099 -0.335560764186099 -0.335560764186099 -0.335560764186099 -0.2651788184715669 -0.2651788184715669 -0.2651788184715669 -0.2651788184715669 -0.1918914992837441 
-0.1918914992837441 -0.1918914992837441 -0.1918914992837441 -0.1165017933347154 -0.1165017933347154 -0.1165017933347154 -0.1165017933347154 -0.03983569709157582 -0.03983569709157582 
-0.03983569709157582 -0.03983569709157582 0.03726684949802442 0.03726684949802442 0.03726684949802442 0.03726684949802442 0.1139611042139254 0.1139611042139254 0.1139611042139254 
0.1139611042139254 0.189406861315035 0.189406861315035 0.189406861315035 0.189406861315035 0.262777242472957 0.262777242472957 0.262777242472957 0.262777242472957 
0.3332692294768684 0.3332692294768684 0.3332692294768684 0.3332692294768684 0.4001077349260232 0.4001077349260232 0.4001077349260232 0.4001077349260232 0.4625682110781522 
0.4625682110781522 0.4625682110781522 0.4625682110781522 0.5199508854498205 0.5199508854498205 0.5199508854498205 0.5199508854498205 0.5716178510877247 0.5716178510877247 
0.5716178510877247 0.5716178510877247 0.6173611426177855 0.6173611426177855 0.6173611426177855 0.6173611426177855 0.6538098613610475 0.6538098613610475 0.6538098613610475 
0.6538098613610475 0.6982179173028287 0.6982179173028287 0.6982179173028287 0.6982179173028287 0.6708332885608048 0.6708332885608048 0.6708332885608048 0.6708332885608048 
0.6779896936064975 0.6779896936064975 0.6779896936064975 0.6779896936064975 0.6835230910852848 0.6835230910852848 0.6835230910852848 0.6835230910852848 0.6831183733586875 
0.6831183733586875 0.6831183733586875 0.6831183733586875 0.6756473694692882 0.6756473694692882 0.6756473694692882 0.6756473694692882 0.6608839119537531 0.6608839119537531 
0.6608839119537531 0.6608839119537531 0.6389041138641485 0.6389041138641485 0.6389041138641485 0.6389041138641485 0.6099283065893418 0.6099283065893418 0.6099283065893418 
0.6099283065893418 0.574268367696904 0.574268367696904 0.574268367696904 0.574268367696904 0.5323010311831022 0.5323010311831022 0.5323010311831022 0.5323010311831022 
0.4844657443112916 0.4844657443112916 0.4844657443112916 0.4844657443112916 0.4313254065628387 0.4313254065628387 0.4313254065628387 0.4313254065628387 0.3736780811866698 
0.3736780811866698 0.3736780811866698 0.3736780811866698 0.312602298679768 0.312602298679768 0.312602298679768 0.312602298679768 0.2492758258702005 0.2492758258702005 
0.2492758258702005 0.2492758258702005 0.1845535742920655 0.1845535742920655 0.1845535742920655 0.1845535742920655 0.1185633107446898 0.1185633107446898 0.1185633107446898 
0.1185633107446898 0.05070973771492399 0.05070973771492399 0.05070973771492399 0.05070973771492399 -0.0197482322317243 -0.0197482322317243 -0.0197482322317243 -0.0197482322317243 
-0.09284618285861564 -0.09284618285861564 -0.09284618285861564 -0.09284618285861564 -0.167382075832818 -0.167382075832818 -0.167382075832818 -0.167382075832818 -0.241114854306367 
-0.241114854306367 -0.241114854306367 -0.241114854306367 -0.3115726002262682 -0.3115726002262682 -0.3115726002262682 -0.3115726002262682 -0.3769173999241013 -0.3769173999241013 
-0.3769173999241013 -0.3769173999241013 -0.4363319437300023 -0.4363319437300023 -0.4363319437300023 -0.4363319437300023 -0.4897967749975733 -0.4897967749975733 -0.4897967749975733 
-0.4897967749975733 -0.5375467098075808 -0.5375467098075808 -0.5375467098075808 -0.5375467098075808 -0.579617603024401 -0.579617603024401 -0.579617603024401 -0.579617603024401 
-0.6157085449237658 -0.6157085449237658 -0.6157085449237658 -0.6157085449237658 -0.6453127784461832 -0.6453127784461832 -0.6453127784461832 -0.6453127784461832 -0.6679281042675631 
-0.6679281042675631 -0.6679281042675631 -0.6679281042675631 -0.6831921084272211 -0.6831921084272211 -0.6831921084272211 -0.6831921084272211 -0.6909093054762838 -0.6909093054762838 
-0.6909093054762838 -0.6909093054762838 -0.6910249672722967 -0.6910249672722967 -0.6910249672722967 -0.6910249672722967 -0.6835697107377451 -0.6835697107377451 -0.6835697107377451 
-0.6835697107377451 -0.6686317225467128 -0.6686317225467128 -0.6686317225467128 -0.6686317225467128 -0.6463717359147602 -0.6463717359147602 -0.6463717359147602 -0.6463717359147602 
-0.617031681919433 -0.617031681919433 -0.617031681919433 -0.617031681919433 -0.5809309658977699 -0.5809309658977699 -0.5809309658977699 -0.5809309658977699 -0.5384649109590069 
-0.5384649109590069 -0.5384649109590069 -0.5384649109590069 -0.4900991417884634 -0.4900991417884634 -0.4900991417884634 -0.4900991417884634 -0.4363638224357365 -0.4363638224357365 
-0.4363638224357365 -0.4363638224357365 -0.3778477149754956 -0.3778477149754956 -0.3778477149754956 -0.3778477149754956 -0.3151918282878594 -0.3151918282878594 -0.3151918282878594 
-0.3151918282878594 -0.2490825878666716 -0.2490825878666716 -0.2490825878666716 -0.2490825878666716 -0.1802443337642057 -0.1802443337642057 -0.1802443337642057 -0.1802443337642057 
-0.1094313262106191 -0.1094313262106191 -0.1094313262106191 -0.1094313262106191 -0.03741941173120994 -0.03741941173120994 -0.03741941173120994 -0.03741941173120994 0.03500248629897365 
0.03500248629897365 0.03500248629897365 0.03500248629897365 0.107040929750063 0.107040929750063 0.107040929750063 0.107040929750063 0.1779067087031322 0.1779067087031322 
0.1779067087031322 0.1779067087031322 0.2468231344017291 0.2468231344017291 0.2468231344017291 0.2468231344017291 0.3130358571589137 0.3130358571589137 0.3130358571589137 
0.3130358571589137 0.3758170291421916 0.3758170291421916 0.3758170291421916 0.3758170291421916 0.4344856028511518 0.4344856028511518 0.4344856028511518 0.4344856028511518 
0.4883851204182075 0.4883851204182075 0.4883851204182075 0.4883851204182075 0.5369182836488926 0.5369182836488926 0.5369182836488926 0.5369182836488926 0.5798598281834362 
0.5798598281834362 0.5798598281834362 0.5798598281834362 0.6142471218377282 0.6142471218377282 0.6142471218377282 0.6142471218377282 0.655499011344199 0.655499011344199 
0.655499011344199 0.655499011344199 0.6017269239217455 0.6017269239217455 0.6017269239217455 0.6017269239217455 0.6082177411785445 0.6082177411785445 0.6082177411785445 
0.6082177411785445 0.6132337580775922 0.6132337580775922 0.6132337580775922 0.6132337580775922 0.612864410537754 0.612864410537754 0.612864410537754 0.612864410537754 
0.6061389882937531 0.6061389882937531 0.6061389882937531 0.6061389882937531 0.592878190875764 0.592878190875764 0.592878190875764 0.592878190875764 0.5731566196332462 
0.5731566196332462 0.5731566196332462 0.5731566196332462 0.5471676513458043 0.5471676513458043 0.5471676513458043 0.5471676513458043 0.515185602039705 0.515185602039705 
0.515185602039705 0.515185602039705 0.4775443980634576 0.4775443980634576 0.4775443980634576 0.4775443980634576 0.4346369577783107 0.4346369577783107 0.4346369577783107 
0.4346369577783107 0.3869682914815014 0.3869682914815014 0.3869682914815014 0.3869682914815014 0.335253631684074 0.335253631684074 0.335253631684074 0.335253631684074 
0.2804586923150842 0.2804586923150842 0.2804586923150842 0.2804586923150842 0.2236390336169907 0.2236390336169907 0.2236390336169907 0.2236390336169907 0.1655639007742238 
0.1655639007742238 0.1655639007742238 0.1655639007742238 0.1063534872897634 0.1063534872897634 0.1063534872897634 0.1063534872897634 0.0454791386497584 0.0454791386497584 
0.0454791386497584 0.0454791386497584 -0.01772292114168534 -0.01772292114168534 -0.01772292114168534 -0.01772292114168534 -0.08328888714003349 -0.08328888714003349 -0.08328888714003349 
-0.08328888714003349 -0.1501468169102651 -0.1501468169102651 -0.1501468169102651 -0.1501468169102651 -0.2162902478035906 -0.2162902478035906 -0.2162902478035906 -0.2162902478035906 
-0.2795010908384987 -0.2795010908384987 -0.2795010908384987 -0.2795010908384987 -0.3381270529652327 -0.3381270529652327 -0.3381270529652327 -0.3381270529652327 -0.3914316474371954 
-0.3914316474371954 -0.3914316474371954 -0.3914316474371954 -0.4393963734246835 -0.4393963734246835 -0.4393963734246835 -0.4393963734246835 -0.4822328325752748 -0.4822328325752748 
-0.4822328325752748 -0.4822328325752748 -0.5199746544177455 -0.5199746544177455 -0.5199746544177455 -0.5199746544177455 -0.5523526650427623 -0.5523526650427623 -0.5523526650427623 
-0.5523526650427623 -0.5789119395665262 -0.5789119395665262 -0.5789119395665262 -0.5789119395665262 -0.599200869453415 -0.599200869453415 -0.599200869453415 -0.599200869453415 
-0.6128942636251338 -0.6128942636251338 -0.6128942636251338 -0.6128942636251338 -0.6198189768164937 -0.6198189768164937 -0.6198189768164937 -0.6198189768164937 -0.6199238867960821 
-0.6199238867960821 -0.6199238867960821 -0.6199238867960821 -0.6132354156713307 -0.6132354156713307 -0.6132354156713307 -0.6132354156713307 -0.5998347485210201 -0.5998347485210201 
-0.5998347485210201 -0.5998347485210201 -0.5798666634993261 -0.5798666634993261 -0.5798666634993261 -0.5798666634993261 -0.5535463910965891 -0.5535463910965891 -0.5535463910965891 
-0.5535463910965891 -0.5211606840030292 -0.5211606840030292 -0.5211606840030292 -0.5211606840030292 -0.4830645089417257 -0.4830645089417257 -0.4830645089417257 -0.4830645089417257 
-0.439675694271769 -0.439675694271769 -0.439675694271769 -0.439675694271769 -0.3914698801659044 -0.3914698801659044 -0.3914698801659044 -0.3914698801659044 -0.3389751406512118 
-0.3389751406512118 -0.3389751406512118 -0.3389751406512118 -0.2827664727228948 -0.2827664727228948 -0.2827664727228948 -0.2827664727228948 -0.2234596815690627 -0.2234596815690627 
-0.2234596815690627 -0.2234596815690627 -0.1617046394376042 -0.1617046394376042 -0.1617046394376042 -0.1617046394376042 -0.09817803619222282 -0.09817803619222282 -0.09817803619222282 
-0.09817803619222282 -0.03357585625325273 -0.03357585625325273 -0.03357585625325273 -0.03357585625325273 0.03139422852999642 0.03139422852999642 0.03139422852999642 0.03139422852999642 
0.09602046740606712 0.09602046740606712 0.09602046740606712 0.09602046740606712 0.1595948299800093 0.1595948299800093 0.1595948299800093 0.1595948299800093 0.2214204760806226 
0.2214204760806226 0.2214204760806226 0.2214204760806226 0.2808206172458948 0.2808206172458948 0.2808206172458948 0.2808206172458948 0.3371423189833103 0.3371423189833103 
0.3371423189833103 0.3371423189833103 0.389774571902694 0.389774571902694 0.389774571902694 0.389774571902694 0.4381287130898218 0.4381287130898218 0.4381287130898218 
0.4381287130898218 0.481668143494169 0.481668143494169 0.481668143494169 0.481668143494169 0.5201943344307259 0.5201943344307259 0.5201943344307259 0.5201943344307259 
0.551031009052328 0.551031009052328 0.551031009052328 0.551031009052328 0.5880689712639657 0.5880689712639657 0.5880689712639657 0.5880689712639657 0.5219685774687832 
0.5219685774687832 0.5219685774687832 0.5219685774687832 0.5275890808731518 0.5275890808731518 0.5275890808731518 0.5275890808731518 0.531965554262509 0.531965554262509 
0.531965554262509 0.531965554262509 0.5316657409843959 0.5316657409843959 0.5316657409843959 0.5316657409843959 0.5258316595053449 0.5258316595053449 0.5258316595053449 
0.5258316595053449 0.5143169733249999 0.5143169733249999 0.5143169733249999 0.5143169733249999 0.4971975012634147 0.4971975012634147 0.4971975012634147 0.4971975012634147 
0.4746477011863617 0.4746477011863617 0.4746477011863617 0.4746477011863617 0.446906945024296 0.446906945024296 0.446906945024296 0.446906945024296 0.4142629697423179 
0.4142629697423179 0.4142629697423179 0.4142629697423179 0.3770535067895718 0.3770535067895718 0.3770535067895718 0.3770535067895718 0.3357128926370026 0.3357128926370026 
0.3357128926370026 0.3357128926370026 0.2908576072180179 0.2908576072180179 0.2908576072180179 0.2908576072180179 0.2433226577554371 0.2433226577554371 0.2433226577554371 
0.2433226577554371 0.1940246072108852 0.1940246072108852 0.1940246072108852 0.1940246072108852 0.1436360579359466 0.1436360579359466 0.1436360579359466 0.1436360579359466 
0.09226810481023585 0.09226810481023585 0.09226810481023585 0.09226810481023585 0.03946535666505824 0.03946535666505824 0.03946535666505824 0.03946535666505824 -0.01535140935162734 
-0.01535140935162734 -0.01535140935162734 -0.01535140935162734 -0.07222127228363459 -0.07222127228363459 -0.07222127228363459 -0.07222127228363459 -0.1302202930443349 -0.1302202930443349 
-0.1302202930443349 -0.1302202930443349 -0.1876076599865532 -0.1876076599865532 -0.1876076599865532 -0.1876076599865532 -0.2424535362426057 -0.2424535362426057 -0.2424535362426057 
-0.2424535362426057 -0.2933182567074443 -0.2933182567074443 -0.2933182567074443 -0.2933182567074443 -0.3395603822044815 -0.3395603822044815 -0.3395603822044815 -0.3395603822044815 
-0.3811658390915937 -0.3811658390915937 -0.3811658390915937 -0.3811658390915937 -0.4183221175302059 -0.4183221175302059 -0.4183221175302059 -0.4183221175302059 -0.4510611864464629 
-0.4510611864464629 -0.4510611864464629 -0.4510611864464629 -0.4791499026551969 -0.4791499026551969 -0.4791499026551969 -0.4791499026551969 -0.5021922112376638 -0.5021922112376638 
-0.5021922112376638 -0.5021922112376638 -0.5197947326037127 -0.5197947326037127 -0.5197947326037127 -0.5197947326037127 -0.5316750044706006 -0.5316750044706006 -0.5316750044706006 
-0.5316750044706006 -0.5376837055334955 -0.5376837055334955 -0.5376837055334955 -0.5376837055334955 -0.5377762393436641 -0.5377762393436641 -0.5377762393436641 -0.5377762393436641 
-0.5319746959700049 -0.5319746959700049 -0.5319746959700049 -0.5319746959700049 -0.520351127012461 -0.520351127012461 -0.520351127012461 -0.520351127012461 -0.5030309198917232 
-0.5030309198917232 -0.5030309198917232 -0.5030309198917232 -0.4802000284787197 -0.4802000284787197 -0.4802000284787197 -0.4802000284787197 -0.4521071332019098 -0.4521071332019098 
-0.4521071332019098 -0.4521071332019098 -0.4190602376092581 -0.4190602376092581 -0.4190602376092581 -0.4190602376092581 -0.3814220320376971 -0.3814220320376971 -0.3814220320376971 
-0.3814220320376971 -0.3396051144433465 -0.3396051144433465 -0.3396051144433465 -0.3396051144433465 -0.2940674781059673 -0.2940674781059673 -0.2940674781059673 -0.2940674781059673 
-0.2453078689017235 -0.2453078689017235 -0.2453078689017235 -0.2453078689017235 -0.193860550631586 -0.193860550631586 -0.193860550631586 -0.193860550631586 -0.1402893958145374 
-0.1402893958145374 -0.1402893958145374 -0.1402893958145374 -0.08518145480941609 -0.08518145480941609 -0.08518145480941609 -0.08518145480941609 -0.0291403718585892 -0.0291403718585892 
-0.0291403718585892 -0.0291403718585892 0.02722012694165294 0.02722012694165294 0.02722012694165294 0.02722012694165294 0.08328268311972005 0.08328268311972005 0.08328268311972005 
0.08328268311972005 0.1384330084830922 0.1384330084830922 0.1384330084830922 0.1384330084830922 0.1920664475481549 0.1920664475481549 0.1920664475481549 0.1920664475481549 
0.2435957927534146 0.2435957927534146 0.2435957927534146 0.2435957927534146 0.2924546604157985 0.2924546604157985 0.2924546604157985 0.2924546604157985 0.3381130744618415 
0.3381130744618415 0.3381130744618415 0.3381130744618415 0.3800604772221439 0.3800604772221439 0.3800604772221439 0.3800604772221439 0.4178313691489243 0.4178313691489243 
0.4178313691489243 0.4178313691489243 0.4512543976082343 0.4512543976082343 0.4512543976082343 0.4512543976082343 0.4779945606656117 0.4779945606656117 0.4779945606656117 
0.4779945606656117 0.5101739056787007 0.5101739056787007 0.5101739056787007 0.5101739056787007 0.4359816672664408 0.4359816672664408 0.4359816672664408 0.4359816672664408 
0.440665196439165 0.440665196439165 0.440665196439165 0.440665196439165 0.4443208731181326 0.4443208731181326 0.4443208731181326 0.4443208731181326 0.44408418342029 
0.44408418342029 0.44408418342029 0.44408418342029 0.4392226109765331 0.4392226109765331 0.4392226109765331 0.4392226109765331 0.4296055555728918 0.4296055555728918 
0.4296055555728918 0.4296055555728918 0.4152979663714416 0.4152979663714416 0.4152979663714416 0.4152979663714416 0.3964519022935265 0.3964519022935265 0.3964519022935265 
0.3964519022935265 0.3732735059746101 0.3732735059746101 0.3732735059746101 0.3732735059746101 0.3460068259962765 0.3460068259962765 0.3460068259962765 0.3460068259962765 
0.3149341637746611 0.3149341637746611 0.3149341637746611 0.3149341637746611 0.2804151133241934 0.2804151133241934 0.2804151133241934 0.2804151133241934 0.2429594222918005 
0.2429594222918005 0.2429594222918005 0.2429594222918005 0.2032604243833411 0.2032604243833411 0.2032604243833411 0.2032604243833411 0.1620838799632963 0.1620838799632963 
0.1620838799632963 0.1620838799632963 0.119996476050146 0.119996476050146 0.119996476050146 0.119996476050146 0.07709660301838536 0.07709660301838536 0.07709660301838536 
0.07709660301838536 0.0330045605097487 0.0330045605097487 0.0330045605097487 0.0330045605097487 -0.01276967326536251 -0.01276967326536251 -0.01276967326536251 -0.01276967326536251 
-0.06026758222716459 -0.06026758222716459 -0.06026758222716459 -0.06026758222716459 -0.1087217436818617 -0.1087217436818617 -0.1087217436818617 -0.1087217436818617 -0.1566741679770723 
-0.1566741679770723 -0.1566741679770723 -0.1566741679770723 -0.2025036126514175 -0.2025036126514175 -0.2025036126514175 -0.2025036126514175 -0.2449996176394474 -0.2449996176394474 
-0.2449996176394474 -0.2449996176394474 -0.2836246457781126 -0.2836246457781126 -0.2836246457781126 -0.2836246457781126 -0.3183710141977761 -0.3183710141977761 -0.3183710141977761 
-0.3183710141977761 -0.3494011247049636 -0.3494011247049636 -0.3494011247049636 -0.3494011247049636 -0.3767452229302651 -0.3767452229302651 -0.3767452229302651 -0.3767452229302651 
-0.4002086570139277 -0.4002086570139277 -0.4002086570139277 -0.4002086570139277 -0.4194586066089224 -0.4194586066089224 -0.4194586066089224 -0.4194586066089224 -0.4341645336057145 
-0.4341645336057145 -0.4341645336057145 -0.4341645336057145 -0.4440899582305666 -0.4440899582305666 -0.4440899582305666 -0.4440899582305666 -0.4491107680101202 -0.4491107680101202 
-0.4491107680101202 -0.4491107680101202 -0.449189671266618 -0.449189671266618 -0.449189671266618 -0.449189671266618 -0.444345373360129 -0.444345373360129 -0.444345373360129 
-0.444345373360129 -0.4346384881546947 -0.4346384881546947 -0.4346384881546947 -0.4346384881546947 -0.4201736037064977 -0.4201736037064977 -0.4201736037064977 -0.4201736037064977 
-0.4011057392832871 -0.4011057392832871 -0.4011057392832871 -0.4011057392832871 -0.377642307311584 -0.377642307311584 -0.377642307311584 -0.377642307311584 -0.3500406774896163 
-0.3500406774896163 -0.3500406774896163 -0.3500406774896163 -0.3186039322161315 -0.3186039322161315 -0.3186039322161315 -0.3186039322161315 -0.2836766827167921 -0.2836766827167921 
-0.2836766827167921 -0.2836766827167921 -0.2456414029702576 -0.2456414029702576 -0.2456414029702576 -0.2456414029702576 -0.2049146948935878 -0.2049146948935878 -0.2049146948935878 
-0.2049146948935878 -0.1619429830024148 -0.1619429830024148 -0.1619429830024148 -0.1619429830024148 -0.117197418698885 -0.117197418698885 -0.117197418698885 -0.117197418698885 
-0.07116829972126437 -0.07116829972126437 -0.07116829972126437 -0.07116829972126437 -0.02435954128901106 -0.02435954128901106 -0.02435954128901106 -0.02435954128901106 0.02271654834404308 
0.02271654834404308 0.02271654834404308 0.02271654834404308 0.06954438641978357 0.06954438641978357 0.06954438641978357 0.06954438641978357 0.1156106530514768 0.1156106530514768 
0.1156106530514768 0.1156106530514768 0.1604099688323531 0.1604099688323531 0.1604099688323531 0.1604099688323531 0.2034516782629427 0.2034516782629427 0.2034516782629427 
0.2034516782629427 0.2442627660345627 0.2442627660345627 0.2442627660345627 0.2442627660345627 0.2824007725427032 0.2824007725427032 0.2824007725427032 0.2824007725427032 
0.3174393671268892 0.3174393671268892 0.3174393671268892 0.3174393671268892 0.3489897139688017 0.3489897139688017 0.3489897139688017 0.3489897139688017 0.3769105753271345 
0.3769105753271345 0.3769105753271345 0.3769105753271345 0.3992364621059031 0.3992364621059031 0.3992364621059031 0.3992364621059031 0.426155529806439 0.426155529806439 
0.426155529806439 0.426155529806439 0.3466468851767764 0.3466468851767764 0.3466468851767764 0.3466468851767764 0.3503653318138957 0.3503653318138957 0.3503653318138957 
0.3503653318138957 0.3532664676919708 0.3532664676919708 0.3532664676919708 0.3532664676919708 0.3530821202391974 0.3530821202391974 0.3530821202391974 0.3530821202391974 
0.3492267679286683 0.3492267679286683 0.3492267679286683 0.3492267679286683 0.341588558549898 0.341588558549898 0.341588558549898 0.341588558549898 0.3302135261846204 
0.3302135261846204 0.3302135261846204 0.3302135261846204 0.3152219832200043 0.3152219832200043 0.3152219832200043 0.3152219832200043 0.2967814712246545 0.2967814712246545 
0.2967814712246545 0.2967814712246545 0.27509137518676 0.27509137518676 0.27509137518676 0.27509137518676 0.2503803751204607 0.2503803751204607 0.2503803751204607 
0.2503803751204607 0.2229354374314118 0.2229354374314118 0.2229354374314118 0.2229354374314118 0.1931596846872679 0.1931596846872679 0.1931596846872679 0.1931596846872679 
0.1616014353752694 0.1616014353752694 0.1616014353752694 0.1616014353752694 0.1288690816751231 0.1288690816751231 0.1288690816751231 0.1288690816751231 0.09541595131275139 
0.09541595131275139 0.09541595131275139 0.09541595131275139 0.06132278649535698 0.06132278649535698 0.06132278649535698 0.06132278649535698 0.02628522320123981 0.02628522320123981 
0.02628522320123981 0.02628522320123981 -0.01009452079575458 -0.01009452079575458 -0.01009452079575458 -0.01009452079575458 -0.04785812272124196 -0.04785812272124196 -0.04785812272124196 
-0.04785812272124196 -0.08639763290141567 -0.08639763290141567 -0.08639763290141567 -0.08639763290141567 -0.1245471138331189 -0.1245471138331189 -0.1245471138331189 -0.1245471138331189 
-0.1610063512463355 -0.1610063512463355 -0.1610063512463355 -0.1610063512463355 -0.1948047613963002 -0.1948047613963002 -0.1948047613963002 -0.1948047613963002 -0.2255142586992128 
-0.2255142586992128 -0.2255142586992128 -0.2255142586992128 -0.2531340999343943 -0.2531340999343943 -0.2531340999343943 -0.2531340999343943 -0.2777998681157008 -0.2777998681157008 
-0.2777998681157008 -0.2777998681157008 -0.2995390231572254 -0.2995390231572254 -0.2995390231572254 -0.2995390231572254 -0.3181963713336264 -0.3181963713336264 -0.3181963713336264 
-0.3181963713336264 -0.3335049126011938 -0.3335049126011938 -0.3335049126011938 -0.3335049126011938 -0.3451998570296782 -0.3451998570296782 -0.3451998570296782 -0.3451998570296782 
-0.3530927239083577 -0.3530927239083577 -0.3530927239083577 -0.3530927239083577 -0.3570853713006618 -0.3570853713006618 -0.3570853713006618 -0.3570853713006618 -0.3571486676561149 
-0.3571486676561149 -0.3571486676561149 -0.3571486676561149 -0.3532977767925466 -0.3532977767925466 -0.3532977767925466 -0.3532977767925466 -0.3455809947221412 -0.3455809947221412 
-0.3455809947221412 -0.3455809947221412 -0.334081391496079 -0.334081391496079 -0.334081391496079 -0.334081391496079 -0.3189218746383957 -0.3189218746383957 -0.3189218746383957 
-0.3189218746383957 -0.3002671727349154 -0.3002671727349154 -0.3002671727349154 -0.3002671727349154 -0.2783219776298673 -0.2783219776298673 -0.2783219776298673 -0.2783219776298673 
-0.2533273445301907 -0.2533273445301907 -0.2533273445301907 -0.2533273445301907 -0.2255572816897132 -0.2255572816897132 -0.2255572816897132 -0.2255572816897132 -0.1953158929731313 
-0.1953158929731313 -0.1953158929731313 -0.1953158929731313 -0.162934577071259 -0.162934577071259 -0.162934577071259 -0.162934577071259 -0.1287685815968431 -0.1287685815968431 
-0.1287685815968431 -0.1287685815968431 -0.0931926739596787 -0.0931926739596787 -0.0931926739596787 -0.0931926739596787 -0.05659643723839282 -0.05659643723839282 -0.05659643723839282 
-0.05659643723839282 -0.01937995733756209 -0.01937995733756209 -0.01937995733756209 -0.01937995733756209 0.01804993186417524 0.01804993186417524 0.01804993186417524 0.01804993186417524 
0.05528330859917879 0.05528330859917879 0.05528330859917879 0.05528330859917879 0.09191152537282134 0.09191152537282134 0.09191152537282134 0.09191152537282134 0.1275321464705414 
0.1275321464705414 0.1275321464705414 0.1275321464705414 0.161754770122313 0.161754770122313 0.161754770122313 0.161754770122313 0.1942034709946996 0.1942034709946996 
0.1942034709946996 0.1942034709946996 0.2245268810133144 0.2245268810133144 0.2245268810133144 0.2245268810133144 0.2523862843768251 0.2523862843768251 0.2523862843768251 
0.2523862843768251 0.2774726675339541 0.2774726675339541 0.2774726675339541 0.2774726675339541 0.2996748882185448 0.2996748882185448 0.2996748882185448 0.2996748882185448 
0.3174191538228744 0.3174191538228744 0.3174191538228744 0.3174191538228744 0.3388511273870412 0.3388511273870412 0.3388511273870412 0.3388511273870412 0.2564759523426534 
0.2564759523426534 0.2564759523426534 0.2564759523426534 0.2592246273697414 0.2592246273697414 0.2592246273697414 0.2592246273697414 0.2613667529417171 0.2613667529417171 
0.2613667529417171 0.2613667529417171 0.2612285609787915 0.2612285609787915 0.2612285609787915 0.2612285609787915 0.2583796359381987 0.2583796359381987 0.2583796359381987 
0.2583796359381987 0.2527355640013289 0.2527355640013289 0.2527355640013289 0.2527355640013289 0.2443255790961799 0.2443255790961799 0.2443255790961799 0.2443255790961799 
0.2332341541043521 0.2332341541043521 0.2332341541043521 0.2332341541043521 0.2195836638834968 0.2195836638834968 0.2195836638834968 0.2195836638834968 0.2035237355734121 
0.2035237355734121 0.2035237355734121 0.2035237355734121 0.1852279679399887 0.1852279679399887 0.1852279679399887 0.1852279679399887 0.1649126873103787 0.1649126873103787 
0.1649126873103787 0.1649126873103787 0.1428777596463178 0.1428777596463178 0.1428777596463178 0.1428777596463178 0.1195284608350914 0.1195284608350914 0.1195284608350914 
0.1195284608350914 0.09531477916530713 0.09531477916530713 0.09531477916530713 0.09531477916530713 0.07057341057638414 0.07057341057638414 0.07057341057638414 0.07057341057638414 
0.04536466200252147 0.04536466200252147 0.04536466200252147 0.04536466200252147 0.01945982320320538 0.01945982320320538 0.01945982320320538 0.01945982320320538 -0.007443086515955722 