Title = Result/Linear_Advection_2D/FVM/MLP_u1_Least_Square/Sine_Wave_2D/Quad60/
FileType = Solution
Variables = q
Zone T = Result/Linear_Advection_2D/FVM/MLP_u1_Least_Square/Sine_Wave_2D/Quad60/
ZoneType = FETriangle
Nodes = 14400
Elements = 7200
DataPacking = Block
StrandID = 13
SolutionTime = 1.2
-0.4458236574503452 -0.4458236574503452 -0.4458236574503452 -0.4458236574503452 -0.4320854694213427 -0.4320854694213427 -0.4320854694213427 -0.4320854694213427 -0.4085756893801066 -0.4085756893801066 
-0.4085756893801066 -0.4085756893801066 -0.3794516874672423 -0.3794516874672423 -0.3794516874672423 -0.3794516874672423 -0.3460021889620924 -0.3460021889620924 -0.3460021889620924 
-0.3460021889620924 -0.3088597120408733 -0.3088597120408733 -0.3088597120408733 -0.3088597120408733 -0.2685378571104995 -0.2685378571104995 -0.2685378571104995 -0.2685378571104995 
-0.2255280567048223 -0.2255280567048223 -0.2255280567048223 -0.2255280567048223 -0.1803047135143966 -0.1803047135143966 -0.1803047135143966 -0.1803047135143966 -0.1332963530929084 
-0.1332963530929084 -0.1332963530929084 -0.1332963530929084 -0.08485086152044831 -0.08485086152044831 -0.08485086152044831 -0.08485086152044831 -0.0352488211731737 -0.0352488211731737 
-0.0352488211731737 -0.0352488211731737 0.0152096182581517 0.0152096182581517 0.0152096182581517 0.0152096182581517 0.06610214947408721 0.06610214947408721 0.06610214947408721 
0.06610214947408721 0.1168546974564009 0.1168546974564009 0.1168546974564009 0.1168546974564009 0.1667991043150047 0.1667991043150047 0.1667991043150047 0.1667991043150047 
0.2152445018259953 0.2152445018259953 0.2152445018259953 0.2152445018259953 0.2614964939954355 0.2614964939954355 0.2614964939954355 0.2614964939954355 0.304843766907536 
0.304843766907536 0.304843766907536 0.304843766907536 0.3445804541044015 0.3445804541044015 0.3445804541044015 0.3445804541044015 0.3800870895101494 0.3800870895101494 
0.3800870895101494 0.3800870895101494 0.4109179546810493 0.4109179546810493 0.4109179546810493 0.4109179546810493 0.436826819947548 0.436826819947548 0.436826819947548 
0.436826819947548 0.457715257956594 0.457715257956594 0.457715257956594 0.457715257956594 0.4735468136197528 0.4735468136197528 0.4735468136197528 0.4735468136197528 
0.4842788027481648 0.4842788027481648 0.4842788027481648 0.4842788027481648 0.4898376947831532 0.4898376947831532 0.4898376947831532 0.4898376947831532 0.4901569370671846 
0.4901569370671846 0.4901569370671846 0.4901569370671846 0.485204203284881 0.485204203284881 0.485204203284881 0.485204203284881 0.4749640219619771 0.4749640219619771 
0.4749640219619771 0.4749640219619771 0.4595140627641808 0.4595140627641808 0.4595140627641808 0.4595140627641808 0.4390038070602897 0.4390038070602897 0.4390038070602897 
0.4390038070602897 0.41365466244388 0.41365466244388 0.41365466244388 0.41365466244388 0.383751138989027 0.383751138989027 0.383751138989027 0.383751138989027 
0.3496360755261839 0.3496360755261839 0.3496360755261839 0.3496360755261839 0.3116983305706931 0.3116983305706931 0.3116983305706931 0.3116983305706931 0.2703578192149446 
0.2703578192149446 0.2703578192149446 0.2703578192149446 0.2260566589608 0.2260566589608 0.2260566589608 0.2260566589608 0.1792658282375985 0.1792658282375985 
0.1792658282375985 0.1792658282375985 0.130497410635095 0.130497410635095 0.130497410635095 0.130497410635095 0.08030217380981895 0.08030217380981895 0.08030217380981895 
0.08030217380981895 0.02924704180078932 0.02924704180078932 0.02924704180078932 0.02924704180078932 -0.02210934685120264 -0.02210934685120264 -0.02210934685120264 -0.02210934685120264 
-0.07322248862711887 -0.07322248862711887 -0.07322248862711887 -0.07322248862711887 -0.1235503455126147 -0.1235503455126147 -0.1235503455126147 -0.1235503455126147 -0.1725437016778544 
-0.1725437016778544 -0.1725437016778544 -0.1725437016778544 -0.2196531334991361 -0.2196531334991361 -0.2196531334991361 -0.2196531334991361 -0.2643482422183897 -0.2643482422183897 
-0.2643482422183897 -0.2643482422183897 -0.306134449683834 -0.306134449683834 -0.306134449683834 -0.306134449683834 -0.3445587520675834 -0.3445587520675834 -0.3445587520675834 
-0.3445587520675834 -0.379207947128041 -0.379207947128041 -0.379207947128041 -0.379207947128041 -0.4097064300783067 -0.4097064300783067 -0.4097064300783067 -0.4097064300783067 
-0.435721806296213 -0.435721806296213 -0.435721806296213 -0.435721806296213 -0.4569607435500794 -0.4569607435500794 -0.4569607435500794 -0.4569607435500794 -0.4732156387825133 
-0.4732156387825133 -0.4732156387825133 -0.4732156387825133 -0.4842049789825128 -0.4842049789825128 -0.4842049789825128 -0.4842049789825128 -0.4901894416670046 -0.4901894416670046 
-0.4901894416670046 -0.4901894416670046 -0.4896508199756522 -0.4896508199756522 -0.4896508199756522 -0.4896508199756522 -0.4879174071486173 -0.4879174071486173 -0.4879174071486173 
-0.4879174071486173 -0.466118141141189 -0.466118141141189 -0.466118141141189 -0.466118141141189 -0.3955709809018389 -0.3955709809018389 -0.3955709809018389 -0.3955709809018389 
-0.3830515296136647 -0.3830515296136647 -0.3830515296136647 -0.3830515296136647 -0.3621021792547752 -0.3621021792547752 -0.3621021792547752 -0.3621021792547752 -0.3363228604676528 
-0.3363228604676528 -0.3363228604676528 -0.3363228604676528 -0.3067311236699164 -0.3067311236699164 -0.3067311236699164 -0.3067311236699164 -0.2738549556163644 -0.2738549556163644 
-0.2738549556163644 -0.2738549556163644 -0.2381381428805265 -0.2381381428805265 -0.2381381428805265 -0.2381381428805265 -0.2000173049280363 -0.2000173049280363 -0.2000173049280363 
-0.2000173049280363 -0.1599263243928064 -0.1599263243928064 -0.1599263243928064 -0.1599263243928064 -0.1182555354838958 -0.1182555354838958 -0.1182555354838958 -0.1182555354838958 
-0.07530008653847359 -0.07530008653847359 -0.07530008653847359 -0.07530008653847359 -0.03127921775785056 -0.03127921775785056 -0.03127921775785056 -0.03127921775785056 0.01354561819729341 
0.01354561819729341 0.01354561819729341 0.01354561819729341 0.05875191687455506 0.05875191687455506 0.05875191687455506 0.05875191687455506 0.1037606461277795 0.1037606461277795 
0.1037606461277795 0.1037606461277795 0.1479536136292516 0.1479536136292516 0.1479536136292516 0.1479536136292516 0.1907682231817445 0.1907682231817445 0.1907682231817445 
0.1907682231817445 0.2316755452263994 0.2316755452263994 0.2316755452263994 0.2316755452263994 0.27009795741312 0.27009795741312 0.27009795741312 0.27009795741312 
0.3053946510290376 0.3053946510290376 0.3053946510290376 0.3053946510290376 0.3369589954823115 0.3369589954823115 0.3369589954823115 0.3369589954823115 0.364346845919163 
0.364346845919163 0.364346845919163 0.364346845919163 0.3873282886076539 0.3873282886076539 0.3873282886076539 0.3873282886076539 0.4058339914252707 0.4058339914252707 
0.4058339914252707 0.4058339914252707 0.4198537881168534 0.4198537881168534 0.4198537881168534 0.4198537881168534 0.4293593961495419 0.4293593961495419 0.4293593961495419 
0.4293593961495419 0.4342884311635953 0.4342884311635953 0.4342884311635953 0.4342884311635953 0.4345781817012289 0.4345781817012289 0.4345781817012289 0.4345781817012289 
0.4301875240106408 0.4301875240106408 0.4301875240106408 0.4301875240106408 0.4211136296279449 0.4211136296279449 0.4211136296279449 0.4211136296279449 0.4074188406512603 
0.4074188406512603 0.4074188406512603 0.4074188406512603 0.3892370017154977 0.3892370017154977 0.3892370017154977 0.3892370017154977 0.3667628244584137 0.3667628244584137 
0.3667628244584137 0.3667628244584137 0.3402493254167994 0.3402493254167994 0.3402493254167994 0.3402493254167994 0.3100035278561686 0.3100035278561686 0.3100035278561686 
0.3100035278561686 0.2763735449560155 0.2763735449560155 0.2763735449560155 0.2763735449560155 0.2397291072207336 0.2397291072207336 0.2397291072207336 0.2397291072207336 
0.2004531381744972 0.2004531381744972 0.2004531381744972 0.2004531381744972 0.1589567064943085 0.1589567064943085 0.1589567064943085 0.1589567064943085 0.1156997584405011 
0.1156997584405011 0.1156997584405011 0.1156997584405011 0.07118663102159237 0.07118663102159237 0.07118663102159237 0.07118663102159237 0.02593153328994764 0.02593153328994764 
0.02593153328994764 0.02593153328994764 -0.01957494476065617 -0.01957494476065617 -0.01957494476065617 -0.01957494476065617 -0.06486743544054194 -0.06486743544054194 -0.06486743544054194 
-0.06486743544054194 -0.1094804936696742 -0.1094804936696742 -0.1094804936696742 -0.1094804936696742 -0.1529288196654854 -0.1529288196654854 -0.1529288196654854 -0.1529288196654854 
-0.1947151482548686 -0.1947151482548686 -0.1947151482548686 -0.1947151482548686 -0.2343575174629964 -0.2343575174629964 -0.2343575174629964 -0.2343575174629964 -0.2714122925643758 
-0.2714122925643758 -0.2714122925643758 -0.2714122925643758 -0.3054798185393048 -0.3054798185393048 -0.3054798185393048 -0.3054798185393048 -0.3361983520232328 -0.3361983520232328 
-0.3361983520232328 -0.3361983520232328 -0.3632381152420021 -0.3632381152420021 -0.3632381152420021 -0.3632381152420021 -0.3863049788333833 -0.3863049788333833 -0.3863049788333833 
-0.3863049788333833 -0.4051390244188907 -0.4051390244188907 -0.4051390244188907 -0.4051390244188907 -0.4195514853287179 -0.4195514853287179 -0.4195514853287179 -0.4195514853287179 
-0.4293030730522169 -0.4293030730522169 -0.4293030730522169 -0.4293030730522169 -0.4345824172516737 -0.4345824172516737 -0.4345824172516737 -0.4345824172516737 -0.4342043118149006 
-0.4342043118149006 -0.4342043118149006 -0.4342043118149006 -0.4324074581997275 -0.4324074581997275 -0.4324074581997275 -0.4324074581997275 -0.4134631067422322 -0.4134631067422322 
-0.4134631067422322 -0.4134631067422322 -0.3179183814887843 -0.3179183814887843 -0.3179183814887843 -0.3179183814887843 -0.3079763326637036 -0.3079763326637036 -0.3079763326637036 
-0.3079763326637036 -0.291042941416176 -0.291042941416176 -0.291042941416176 -0.291042941416176 -0.2702437359118961 -0.2702437359118961 -0.2702437359118961 -0.2702437359118961 
-0.2464392001562256 -0.2464392001562256 -0.2464392001562256 -0.2464392001562256 -0.2200393643793783 -0.2200393643793783 -0.2200393643793783 -0.2200393643793783 -0.1913706546153167 
-0.1913706546153167 -0.1913706546153167 -0.1913706546153167 -0.1607648877249325 -0.1607648877249325 -0.1607648877249325 -0.1607648877249325 -0.1285761911962219 -0.1285761911962219 
-0.1285761911962219 -0.1285761911962219 -0.09511752239208232 -0.09511752239208232 -0.09511752239208232 -0.09511752239208232 -0.06058618641008401 -0.06058618641008401 -0.06058618641008401 
-0.06058618641008401 -0.02510583607359965 -0.02510583607359965 -0.02510583607359965 -0.02510583607359965 0.01110017601162986 0.01110017601162986 0.01110017601162986 0.01110017601162986 
0.04757741344686917 0.04757741344686917 0.04757741344686917 0.04757741344686917 0.08372244013610103 0.08372244013610103 0.08372244013610103 0.08372244013610103 0.1190070559040342 
0.1190070559040342 0.1190070559040342 0.1190070559040342 0.1531005203525191 0.1531005203525191 0.1531005203525191 0.1531005203525191 0.1857606684609919 0.1857606684609919 
0.1857606684609919 0.1857606684609919 0.2166262412307654 0.2166262412307654 0.2166262412307654 0.2166262412307654 0.2451435659603712 0.2451435659603712 0.2451435659603712 
0.2451435659603712 0.2707015730406723 0.2707015730406723 0.2707015730406723 0.2707015730406723 0.292838381364316 0.292838381364316 0.292838381364316 0.292838381364316 
0.3113411294078622 0.3113411294078622 0.3113411294078622 0.3113411294078622 0.3261882239446442 0.3261882239446442 0.3261882239446442 0.3261882239446442 0.3374187368922271 
0.3374187368922271 0.3374187368922271 0.3374187368922271 0.3450369751811287 0.3450369751811287 0.3450369751811287 0.3450369751811287 0.348996548365882 0.348996548365882 
0.348996548365882 0.348996548365882 0.3492366667323716 0.3492366667323716 0.3492366667323716 0.3492366667323716 0.3457159168868309 0.3457159168868309 0.3457159168868309 
0.3457159168868309 0.3384308608091596 0.3384308608091596 0.3384308608091596 0.3384308608091596 0.32743215346548 0.32743215346548 0.32743215346548 0.32743215346548 
0.3128249561086118 0.3128249561086118 0.3128249561086118 0.3128249561086118 0.2947644833253299 0.2947644833253299 0.2947644833253299 0.2947644833253299 0.2734558362030517 
0.2734558362030517 0.2734558362030517 0.2734558362030517 0.2491514089778527 0.2491514089778527 0.2491514089778527 0.2491514089778527 0.2221349907386388 0.2221349907386388 
0.2221349907386388 0.2221349907386388 0.1926969812657225 0.1926969812657225 0.1926969812657225 0.1926969812657225 0.1611292393007686 0.1611292393007686 0.1611292393007686 
0.1611292393007686 0.12775387153512 0.12775387153512 0.12775387153512 0.12775387153512 0.09295539451870216 0.09295539451870216 0.09295539451870216 0.09295539451870216 
0.05717011432866276 0.05717011432866276 0.05717011432866276 0.05717011432866276 0.02083111538514495 0.02083111538514495 0.02083111538514495 0.02083111538514495 -0.01567908124282864 
-0.01567908124282864 -0.01567908124282864 -0.01567908124282864 -0.0520217210784689 -0.0520217210784689 -0.0520217210784689 -0.0520217210784689 -0.08785308709315937 -0.08785308709315937 
-0.08785308709315937 -0.08785308709315937 -0.1227873645102342 -0.1227873645102342 -0.1227873645102342 -0.1227873645102342 -0.156405735902913 -0.156405735902913 -0.156405735902913 
-0.156405735902913 -0.1882973234396793 -0.1882973234396793 -0.1882973234396793 -0.1882973234396793 -0.2180936848516353 -0.2180936848516353 -0.2180936848516353 -0.2180936848516353 
-0.2454755917308964 -0.2454755917308964 -0.2454755917308964 -0.2454755917308964 -0.270160491000221 -0.270160491000221 -0.270160491000221 -0.270160491000221 -0.2918898654870147 
-0.2918898654870147 -0.2918898654870147 -0.2918898654870147 -0.3104294168376027 -0.3104294168376027 -0.3104294168376027 -0.3104294168376027 -0.3255693381750885 -0.3255693381750885 
-0.3255693381750885 -0.3255693381750885 -0.3371555079618305 -0.3371555079618305 -0.3371555079618305 -0.3371555079618305 -0.3449961199804035 -0.3449961199804035 -0.3449961199804035 
-0.3449961199804035 -0.3492416511226475 -0.3492416511226475 -0.3492416511226475 -0.3492416511226475 -0.3489421371241369 -0.3489421371241369 -0.3489421371241369 -0.3489421371241369 
-0.3475286822169179 -0.3475286822169179 -0.3475286822169179 -0.3475286822169179 -0.3322861180249417 -0.3322861180249417 -0.3322861180249417 -0.3322861180249417 -0.2315196327063173 
-0.2315196327063173 -0.2315196327063173 -0.2315196327063173 -0.224353013345068 -0.224353013345068 -0.224353013345068 -0.224353013345068 -0.2120544307542175 -0.2120544307542175 
-0.2120544307542175 -0.2120544307542175 -0.1968734795763106 -0.1968734795763106 -0.1968734795763106 -0.1968734795763106 -0.1794905830741619 -0.1794905830741619 -0.1794905830741619 
-0.1794905830741619 -0.1602319485952218 -0.1602319485952218 -0.1602319485952218 -0.1602319485952218 -0.1393310516864021 -0.1393310516864021 -0.1393310516864021 -0.1393310516864021 
-0.1170319783057435 -0.1170319783057435 -0.1170319783057435 -0.1170319783057435 -0.093614598146922 -0.093614598146922 -0.093614598146922 -0.093614598146922 -0.06929803133209231 
-0.06929803133209231 -0.06929803133209231 -0.06929803133209231 -0.04414811330084906 -0.04414811330084906 -0.04414811330084906 -0.04414811330084906 -0.01816593279119587 -0.01816593279119587 
-0.01816593279119587 -0.01816593279119587 0.008459796256510603 0.008459796256510603 0.008459796256510603 0.008459796256510603 0.03521353882800187 0.03521353882800187 0.03521353882800187 
0.03521353882800187 0.06144652303513241 0.06144652303513241 0.06144652303513241 0.06144652303513241 0.08673930341770966 0.08673930341770966 0.08673930341770966 0.08673930341770966 
0.1110513480956845 0.1110513480956845 0.1110513480956845 0.1110513480956845 0.1344933284817902 0.1344933284817902 0.1344933284817902 0.1344933284817902 0.1569587600994894 
0.1569587600994894 0.1569587600994894 0.1569587600994894 0.1779802718381966 0.1779802718381966 0.1779802718381966 0.1779802718381966 0.1969173986751835 0.1969173986751835 
0.1969173986751835 0.1969173986751835 0.2132658899835192 0.2132658899835192 0.2132658899835192 0.2132658899835192 0.2268205148345663 0.2268205148345663 0.2268205148345663 
0.2268205148345663 0.2376131659813707 0.2376131659813707 0.2376131659813707 0.2376131659813707 0.2457448319576074 0.2457448319576074 0.2457448319576074 0.2457448319576074 
0.2512628979724038 0.2512628979724038 0.2512628979724038 0.2512628979724038 0.2541413526080891 0.2541413526080891 0.2541413526080891 0.2541413526080891 0.2543248190171614 
0.2543248190171614 0.2543248190171614 0.2543248190171614 0.2517718176039551 0.2517718176039551 0.2517718176039551 0.2517718176039551 0.2464766747003784 0.2464766747003784 
0.2464766747003784 0.2464766747003784 0.2384753027583775 0.2384753027583775 0.2384753027583775 0.2384753027583775 0.2278423726661506 0.2278423726661506 0.2278423726661506 
0.2278423726661506 0.2146895195095162 0.2146895195095162 0.2146895195095162 0.2146895195095162 0.1991684076051546 0.1991684076051546 0.1991684076051546 0.1991684076051546 
0.1814702377128928 0.1814702377128928 0.1814702377128928 0.1814702377128928 0.161806275152315 0.161806275152315 0.161806275152315 0.161806275152315 0.1403788644537146 
0.1403788644537146 0.1403788644537146 0.1403788644537146 0.1173802576350353 0.1173802576350353 0.1173802576350353 0.1173802576350353 0.09303536062598594 0.09303536062598594 
0.09303536062598594 0.09303536062598594 0.06764514206628501 0.06764514206628501 0.06764514206628501 0.06764514206628501 0.04156950328344561 0.04156950328344561 0.04156950328344561 
0.04156950328344561 0.01515084577280972 0.01515084577280972 0.01515084577280972 0.01515084577280972 -0.01134829022311076 -0.01134829022311076 -0.01134829022311076 -0.01134829022311076 
-0.03773020526695943 -0.03773020526695943 -0.03773020526695943 -0.03773020526695943 -0.06378821593716494 -0.06378821593716494 -0.06378821593716494 -0.06378821593716494 -0.0892495448665649 
-0.0892495448665649 -0.0892495448665649 -0.0892495448665649 -0.1137840376100885 -0.1137840376100885 -0.1137840376100885 -0.1137840376100885 -0.137059274708418 -0.137059274708418 
-0.137059274708418 -0.137059274708418 -0.1587883688302315 -0.1587883688302315 -0.1587883688302315 -0.1587883688302315 -0.1787394361940917 -0.1787394361940917 -0.1787394361940917 
-0.1787394361940917 -0.1967169180004956 -0.1967169180004956 -0.1967169180004956 -0.1967169180004956 -0.2125415475991405 -0.2125415475991405 -0.2125415475991405 -0.2125415475991405 
-0.2260460928773045 -0.2260460928773045 -0.2260460928773045 -0.2260460928773045 -0.237077125849916 -0.237077125849916 -0.237077125849916 -0.237077125849916 -0.2455202571331006 
-0.2455202571331006 -0.2455202571331006 -0.2455202571331006 -0.2512358221691869 -0.2512358221691869 -0.2512358221691869 -0.2512358221691869 -0.2543321622052659 -0.2543321622052659 
-0.2543321622052659 -0.2543321622052659 -0.2541169190820892 -0.2541169190820892 -0.2541169190820892 -0.2541169190820892 -0.2531204771580085 -0.2531204771580085 -0.2531204771580085 
-0.2531204771580085 -0.2419997372166069 -0.2419997372166069 -0.2419997372166069 -0.2419997372166069 -0.141404585025808 -0.141404585025808 -0.141404585025808 -0.141404585025808 
-0.1370481072744615 -0.1370481072744615 -0.1370481072744615 -0.1370481072744615 -0.129575906805716 -0.129575906805716 -0.129575906805716 -0.129575906805716 -0.1203227578751504 
-0.1203227578751504 -0.1203227578751504 -0.1203227578751504 -0.1096979121210256 -0.1096979121210256 -0.1096979121210256 -0.1096979121210256 -0.09790579315212034 -0.09790579315212034 
-0.09790579315212034 -0.09790579315212034 -0.08509029571491435 -0.08509029571491435 -0.08509029571491435 -0.08509029571491435 -0.07143319941124399 -0.07143319941124399 -0.07143319941124399 
-0.07143319941124399 -0.05716434241237646 -0.05716434241237646 -0.05716434241237646 -0.05716434241237646 -0.04241429528081718 -0.04241429528081718 -0.04241429528081718 -0.04241429528081718 
-0.02709664005903126 -0.02709664005903126 -0.02709664005903126 -0.02709664005903126 -0.01105834738404557 -0.01105834738404557 -0.01105834738404557 -0.01105834738404557 0.005563769699922744 
0.005563769699922744 0.005563769699922744 0.005563769699922744 0.0221897198773349 0.0221897198773349 0.0221897198773349 0.0221897198773349 0.03811176059468467 0.03811176059468467 
0.03811176059468467 0.03811176059468467 0.05300908548051798 0.05300908548051798 0.05300908548051798 0.05300908548051798 0.06713289085524338 0.06713289085524338 0.06713289085524338 
0.06713289085524338 0.08095857609525936 0.08095857609525936 0.08095857609525936 0.08095857609525936 0.09465091330933351 0.09465091330933351 0.09465091330933351 0.09465091330933351 
0.1078432841757666 0.1078432841757666 0.1078432841757666 0.1078432841757666 0.1198735186935622 0.1198735186935622 0.1198735186935622 0.1198735186935622 0.130195151142209 
0.130195151142209 0.130195151142209 0.130195151142209 0.1386059683187228 0.1386059683187228 0.1386059683187228 0.1386059683187228 0.1451864106156909 0.1451864106156909 
0.1451864106156909 0.1451864106156909 0.1500973350369068 0.1500973350369068 0.1500973350369068 0.1500973350369068 0.1534301465780349 0.1534301465780349 0.1534301465780349 
0.1534301465780349 0.1551816557789911 0.1551816557789911 0.1551816557789911 0.1551816557789911 0.1553048275635727 0.1553048275635727 0.1553048275635727 0.1553048275635727 
0.153760712479604 0.153760712479604 0.153760712479604 0.153760712479604 0.1505403209666728 0.1505403209666728 0.1505403209666728 0.1505403209666728 0.1456641765185301 
0.1456641765185301 0.1456641765185301 0.1456641765185301 0.1391761634582871 0.1391761634582871 0.1391761634582871 0.1391761634582871 0.1311425503150619 0.1311425503150619 
0.1311425503150619 0.1311425503150619 0.1216587850224039 0.1216587850224039 0.1216587850224039 0.1216587850224039 0.1108509844493113 0.1108509844493113 0.1108509844493113 
0.1108509844493113 0.09885509715864145 0.09885509715864145 0.09885509715864145 0.09885509715864145 0.08578532910323469 0.08578532910323469 0.08578532910323469 0.08578532910323469 
0.07173451809280065 0.07173451809280065 0.07173451809280065 0.07173451809280065 0.05682548907958293 0.05682548907958293 0.05682548907958293 0.05682548907958293 0.04126363606310556 
0.04126363606310556 0.04126363606310556 0.04126363606310556 0.02531863645146297 0.02531863645146297 0.02531863645146297 0.02531863645146297 0.009235126913563606 0.009235126913563606 
0.009235126913563606 0.009235126913563606 -0.006841656145316547 -0.006841656145316547 -0.006841656145316547 -0.006841656145316547 -0.02284832255318846 -0.02284832255318846 -0.02284832255318846 
-0.02284832255318846 -0.03871309898035108 -0.03871309898035108 -0.03871309898035108 -0.03871309898035108 -0.05428257854745305 -0.05428257854745305 -0.05428257854745305 -0.05428257854745305 
-0.06932684260165313 -0.06932684260165313 -0.06932684260165313 -0.06932684260165313 -0.08360269123031933 -0.08360269123031933 -0.08360269123031933 -0.08360269123031933 -0.09691113508870636 
-0.09691113508870636 -0.09691113508870636 -0.09691113508870636 -0.1091100023879124 -0.1091100023879124 -0.1091100023879124 -0.1091100023879124 -0.120091619046968 -0.120091619046968 
-0.120091619046968 -0.120091619046968 -0.1297573496416322 -0.1297573496416322 -0.1297573496416322 -0.1297573496416322 -0.138009376300157 -0.138009376300157 -0.138009376300157 
-0.138009376300157 -0.1447534791429581 -0.1447534791429581 -0.1447534791429581 -0.1447534791429581 -0.1499176238910536 -0.1499176238910536 -0.1499176238910536 -0.1499176238910536 
-0.1534160552431786 -0.1534160552431786 -0.1534160552431786 -0.1534160552431786 -0.1553140176412675 -0.1553140176412675 -0.1553140176412675 -0.1553140176412675 -0.1551877886298206 
-0.1551877886298206 -0.1551877886298206 -0.1551877886298206 -0.1545985646655477 -0.1545985646655477 -0.1545985646655477 -0.1545985646655477 -0.1478106053587264 -0.1478106053587264 
-0.1478106053587264 -0.1478106053587264 -0.04948033100444649 -0.04948033100444649 -0.04948033100444649 -0.04948033100444649 -0.04796656461141938 -0.04796656461141938 -0.04796656461141938 
-0.04796656461141938 -0.04537734077115425 -0.04537734077115425 -0.04537734077115425 -0.04537734077115425 -0.04216598440325969 -0.04216598440325969 -0.04216598440325969 -0.04216598440325969 
-0.03846687507844354 -0.03846687507844354 -0.03846687507844354 -0.03846687507844354 -0.03433721437989616 -0.03433721437989616 -0.03433721437989616 -0.03433721437989616 -0.02981399718416553 
-0.02981399718416553 -0.02981399718416553 -0.02981399718416553 -0.02500883003880256 -0.02500883003880256 -0.02500883003880256 -0.02500883003880256 -0.02010463297300999 -0.02010463297300999 
-0.02010463297300999 -0.02010463297300999 -0.0151544632827571 -0.0151544632827571 -0.0151544632827571 -0.0151544632827571 -0.009921464434850199 -0.009921464434850199 -0.009921464434850199 
-0.009921464434850199 -0.004080857902411739 -0.004080857902411739 -0.004080857902411739 -0.004080857902411739 0.002319093439298974 0.002319093439298974 0.002319093439298974 0.002319093439298974 
0.008673024838766967 0.008673024838766967 0.008673024838766967 0.008673024838766967 0.01422320535295618 0.01422320535295618 0.01422320535295618 0.01422320535295618 0.01870895307652298 
0.01870895307652298 0.01870895307652298 0.01870895307652298 0.02260375071597435 0.02260375071597435 0.02260375071597435 0.02260375071597435 0.02668966919389812 0.02668966919389812 
0.02668966919389812 0.02668966919389812 0.03139329540470218 0.03139329540470218 0.03139329540470218 0.03139329540470218 0.03648980481469516 0.03648980481469516 0.03648980481469516 
0.03648980481469516 0.04135609308689414 0.04135609308689414 0.04135609308689414 0.04135609308689414 0.04544770039040778 0.04544770039040778 0.04544770039040778 0.04544770039040778 
0.04857681514526092 0.04857681514526092 0.04857681514526092 0.04857681514526092 0.05085915598704174 0.05085915598704174 0.05085915598704174 0.05085915598704174 0.05249580959274245 
0.05249580959274245 0.05249580959274245 0.05249580959274245 0.05360914380230515 0.05360914380230515 0.05360914380230515 0.05360914380230515 0.05421487632560707 0.05421487632560707 
0.05421487632560707 0.05421487632560707 0.05427658370425845 0.05427658370425845 0.05427658370425845 0.05427658370425845 0.05376049077000051 0.05376049077000051 0.05376049077000051 
0.05376049077000051 0.05265518134135805 0.05265518134135805 0.05265518134135805 0.05265518134135805 0.05096624109360517 0.05096624109360517 0.05096624109360517 0.05096624109360517 
0.04870680054698723 0.04870680054698723 0.04870680054698723 0.04870680054698723 0.04589717317322965 0.04589717317322965 0.04589717317322965 0.04589717317322965 0.04257424098489812 
0.04257424098489812 0.04257424098489812 0.04257424098489812 0.03879576925562579 0.03879576925562579 0.03879576925562579 0.03879576925562579 0.03462169878305089 0.03462169878305089 
0.03462169878305089 0.03462169878305089 0.03008225173912173 0.03008225173912173 0.03008225173912173 0.03008225173912173 0.02517584745516602 0.02517584745516602 0.02517584745516602 
0.02517584745516602 0.01991986135127508 0.01991986135127508 0.01991986135127508 0.01991986135127508 0.01440793670149247 0.01440793670149247 0.01440793670149247 0.01440793670149247 
0.008798918128925068 0.008798918128925068 0.008798918128925068 0.008798918128925068 0.003230304953603891 0.003230304953603891 0.003230304953603891 0.003230304953603891 -0.00226021012706177 
-0.00226021012706177 -0.00226021012706177 -0.00226021012706177 -0.00772267497811922 -0.00772267497811922 -0.00772267497811922 -0.00772267497811922 -0.01320476631191026 -0.01320476631191026 
-0.01320476631191026 -0.01320476631191026 -0.01867288504603812 -0.01867288504603812 -0.01867288504603812 -0.01867288504603812 -0.02401101629581651 -0.02401101629581651 -0.02401101629581651 
-0.02401101629581651 -0.02908145607011663 -0.02908145607011663 -0.02908145607011663 -0.02908145607011663 -0.0337832948992684 -0.0337832948992684 -0.0337832948992684 -0.0337832948992684 
-0.03806648623875951 -0.03806648623875951 -0.03806648623875951 -0.03806648623875951 -0.04190938251688595 -0.04190938251688595 -0.04190938251688595 -0.04190938251688595 -0.04529191176058067 
-0.04529191176058067 -0.04529191176058067 -0.04529191176058067 -0.04818526094049603 -0.04818526094049603 -0.04818526094049603 -0.04818526094049603 -0.05055543676888657 -0.05055543676888657 
-0.05055543676888657 -0.05055543676888657 -0.05237408560112253 -0.05237408560112253 -0.05237408560112253 -0.05237408560112253 -0.05361057973724618 -0.05361057973724618 -0.05361057973724618 
-0.05361057973724618 -0.05428499124158665 -0.05428499124158665 -0.05428499124158665 -0.05428499124158665 -0.05425412016836281 -0.05425412016836281 -0.05425412016836281 -0.05425412016836281 
-0.05406131915437573 -0.05406131915437573 -0.05406131915437573 -0.05406131915437573 -0.05170835091157925 -0.05170835091157925 -0.05170835091157925 -0.05170835091157925 0.04303767005065418 
0.04303767005065418 0.04303767005065418 0.04303767005065418 0.04168732987227806 0.04168732987227806 0.04168732987227806 0.04168732987227806 0.03937870136374638 0.03937870136374638 
0.03937870136374638 0.03937870136374638 0.03653325658945287 0.03653325658945287 0.03653325658945287 0.03653325658945287 0.0332711000113467 0.0332711000113467 0.0332711000113467 
0.0332711000113467 0.02967177314238461 0.02967177314238461 0.02967177314238461 0.02967177314238461 0.0258128691713057 0.0258128691713057 0.0258128691713057 0.0258128691713057 
0.02168030051601546 0.02168030051601546 0.02168030051601546 0.02168030051601546 0.01716183672071344 0.01716183672071344 0.01716183672071344 0.01716183672071344 0.01227171980958823 
0.01227171980958823 0.01227171980958823 0.01227171980958823 0.007353438632672086 0.007353438632672086 0.007353438632672086 0.007353438632672086 0.00287434446774 0.00287434446774 