Title = Result/Linear_Advection_2D/FVM/MLP_u1_Least_Square/Sine_Wave_2D/Quad60/
FileType = Solution
Variables = q
Zone T = Result/Linear_Advection_2D/FVM/MLP_u1_Least_Square/Sine_Wave_2D/Quad60/
ZoneType = FETriangle
Nodes = 14400
Elements = 7200
DataPacking = Block
StrandID = 10
SolutionTime = 0.9
-0.2635082325263434 -0.2635082325263434 -0.2635082325263434 -0.2635082325263434 -0.2825590809550257 -0.2825590809550257 -0.2825590809550257 -0.2825590809550257 -0.3077388035645611 -0.3077388035645611 
-0.3077388035645611 -0.3077388035645611 -0.3314677854121287 -0.3314677854121287 -0.3314677854121287 -0.3314677854121287 -0.3518948879744901 -0.3518948879744901 -0.3518948879744901 
-0.3518948879744901 -0.3685434855843399 -0.3685434855843399 -0.3685434855843399 -0.3685434855843399 -0.3812440443530316 -0.3812440443530316 -0.3812440443530316 -0.3812440443530316 
-0.3898811347988447 -0.3898811347988447 -0.3898811347988447 -0.3898811347988447 -0.394343336355825 -0.394343336355825 -0.394343336355825 -0.394343336355825 -0.394553386725531 
-0.394553386725531 -0.394553386725531 -0.394553386725531 -0.3904796493488 -0.3904796493488 -0.3904796493488 -0.3904796493488 -0.3821207976495079 -0.3821207976495079 
-0.3821207976495079 -0.3821207976495079 -0.3695584868051929 -0.3695584868051929 -0.3695584868051929 -0.3695584868051929 -0.3529299605497231 -0.3529299605497231 -0.3529299605497231 
-0.3529299605497231 -0.3324248243807559 -0.3324248243807559 -0.3324248243807559 -0.3324248243807559 -0.3082743278463228 -0.3082743278463228 -0.3082743278463228 -0.3082743278463228 
-0.2807477987505342 -0.2807477987505342 -0.2807477987505342 -0.2807477987505342 -0.2501484142216323 -0.2501484142216323 -0.2501484142216323 -0.2501484142216323 -0.2168111695975878 
-0.2168111695975878 -0.2168111695975878 -0.2168111695975878 -0.1811001051564981 -0.1811001051564981 -0.1811001051564981 -0.1811001051564981 -0.1434050862297794 -0.1434050862297794 
-0.1434050862297794 -0.1434050862297794 -0.1041378946562865 -0.1041378946562865 -0.1041378946562865 -0.1041378946562865 -0.06372802606470042 -0.06372802606470042 -0.06372802606470042 
-0.06372802606470042 -0.02261826567751511 -0.02261826567751511 -0.02261826567751511 -0.02261826567751511 0.01874011177072304 0.01874011177072304 0.01874011177072304 0.01874011177072304 
0.05989266039249452 0.05989266039249452 0.05989266039249452 0.05989266039249452 0.1003874267453577 0.1003874267453577 0.1003874267453577 0.1003874267453577 0.1397804807277421 
0.1397804807277421 0.1397804807277421 0.1397804807277421 0.1776408652408908 0.1776408652408908 0.1776408652408908 0.1776408652408908 0.2135548713859348 0.2135548713859348 
0.2135548713859348 0.2135548713859348 0.2471299259507835 0.2471299259507835 0.2471299259507835 0.2471299259507835 0.2779984750248213 0.2779984750248213 0.2779984750248213 
0.2779984750248213 0.3058220128707302 0.3058220128707302 0.3058220128707302 0.3058220128707302 0.3302951369377433 0.3302951369377433 0.3302951369377433 0.3302951369377433 
0.3511493073279586 0.3511493073279586 0.3511493073279586 0.3511493073279586 0.3681560941757533 0.3681560941757533 0.3681560941757533 0.3681560941757533 0.3811298655386258 
0.3811298655386258 0.3811298655386258 0.3811298655386258 0.3899281813772719 0.3899281813772719 0.3899281813772719 0.3899281813772719 0.3944483495483025 0.3944483495483025 
0.3944483495483025 0.3944483495483025 0.3946483157833763 0.3946483157833763 0.3946483157833763 0.3946483157833763 0.3905360362902469 0.3905360362902469 0.3905360362902469 
0.3905360362902469 0.3821376160632324 0.3821376160632324 0.3821376160632324 0.3821376160632324 0.3695444963537047 0.3695444963537047 0.3695444963537047 0.3695444963537047 
0.3528910598207571 0.3528910598207571 0.3528910598207571 0.3528910598207571 0.3323643960790615 0.3323643960790615 0.3323643960790615 0.3323643960790615 0.3082099865140051 
0.3082099865140051 0.3082099865140051 0.3082099865140051 0.2807414232380471 0.2807414232380471 0.2807414232380471 0.2807414232380471 0.2503386547080312 0.2503386547080312 
0.2503386547080312 0.2503386547080312 0.2174304431064567 0.2174304431064567 0.2174304431064567 0.2174304431064567 0.1824562864386911 0.1824562864386911 0.1824562864386911 
0.1824562864386911 0.1458160935396738 0.1458160935396738 0.1458160935396738 0.1458160935396738 0.1078256492609655 0.1078256492609655 0.1078256492609655 0.1078256492609655 
0.06870205813538394 0.06870205813538394 0.06870205813538394 0.06870205813538394 0.02859086344365429 0.02859086344365429 0.02859086344365429 0.02859086344365429 -0.01234373348204534 
-0.01234373348204534 -0.01234373348204534 -0.01234373348204534 -0.05390770996002549 -0.05390770996002549 -0.05390770996002549 -0.05390770996002549 -0.09540361027702883 -0.09540361027702883 
-0.09540361027702883 -0.09540361027702883 -0.1375362300489694 -0.1375362300489694 -0.1375362300489694 -0.1375362300489694 -0.1732567424940399 -0.1732567424940399 -0.1732567424940399 
-0.1732567424940399 -0.231722250214161 -0.231722250214161 -0.231722250214161 -0.231722250214161 -0.3015044348731555 -0.3015044348731555 -0.3015044348731555 -0.3015044348731555 
-0.3224618235770494 -0.3224618235770494 -0.3224618235770494 -0.3224618235770494 -0.3511655580574761 -0.3511655580574761 -0.3511655580574761 -0.3511655580574761 -0.378389908667158 
-0.378389908667158 -0.378389908667158 -0.378389908667158 -0.401838326702797 -0.401838326702797 -0.401838326702797 -0.401838326702797 -0.4209253032676919 -0.4209253032676919 
-0.4209253032676919 -0.4209253032676919 -0.4354648530808203 -0.4354648530808203 -0.4354648530808203 -0.4354648530808203 -0.4453408011389178 -0.4453408011389178 -0.4453408011389178 
-0.4453408011389178 -0.450443319689144 -0.450443319689144 -0.450443319689144 -0.450443319689144 -0.4506861993862014 -0.4506861993862014 -0.4506861993862014 -0.4506861993862014 
-0.4460270139605736 -0.4460270139605736 -0.4460270139605736 -0.4460270139605736 -0.4364810749255849 -0.4364810749255849 -0.4364810749255849 -0.4364810749255849 -0.422133284699344 
-0.422133284699344 -0.422133284699344 -0.422133284699344 -0.4031417201314542 -0.4031417201314542 -0.4031417201314542 -0.4031417201314542 -0.3797218030471692 -0.3797218030471692 
-0.3797218030471692 -0.3797218030471692 -0.3521382986848545 -0.3521382986848545 -0.3521382986848545 -0.3521382986848545 -0.3206986110792822 -0.3206986110792822 -0.3206986110792822 
-0.3206986110792822 -0.2857489559764474 -0.2857489559764474 -0.2857489559764474 -0.2857489559764474 -0.2476717594387078 -0.2476717594387078 -0.2476717594387078 -0.2476717594387078 
-0.2068827257337386 -0.2068827257337386 -0.2068827257337386 -0.2068827257337386 -0.1638271815699721 -0.1638271815699721 -0.1638271815699721 -0.1638271815699721 -0.1189755947546859 
-0.1189755947546859 -0.1189755947546859 -0.1189755947546859 -0.07281868130024384 -0.07281868130024384 -0.07281868130024384 -0.07281868130024384 -0.02586225008737082 -0.02586225008737082 
-0.02586225008737082 -0.02586225008737082 0.02137831556219978 0.02137831556219978 0.02137831556219978 0.02137831556219978 0.06838408121553211 0.06838408121553211 0.06838408121553211 
0.06838408121553211 0.114638930967381 0.114638930967381 0.114638930967381 0.114638930967381 0.1596358134534119 0.1596358134534119 0.1596358134534119 0.1596358134534119 
0.2028823980467536 0.2028823980467536 0.2028823980467536 0.2028823980467536 0.2439060210687051 0.2439060210687051 0.2439060210687051 0.2439060210687051 0.2822581939063914 
0.2822581939063914 0.2822581939063914 0.2822581939063914 0.3175190649335172 0.3175190649335172 0.3175190649335172 0.3175190649335172 0.3493020055834414 0.3493020055834414 
0.3493020055834414 0.3493020055834414 0.3772582229470016 0.3772582229470016 0.3772582229470016 0.3772582229470016 0.401081041284102 0.401081041284102 0.401081041284102 
0.401081041284102 0.4205095341017342 0.4205095341017342 0.4205095341017342 0.4205095341017342 0.4353312062129593 0.4353312062129593 0.4353312062129593 0.4353312062129593 
0.4453826794387301 0.4453826794387301 0.4453826794387301 0.4453826794387301 0.4505518675076098 0.4505518675076098 0.4505518675076098 0.4505518675076098 0.4507860107181845 
0.4507860107181845 0.4507860107181845 0.4507860107181845 0.4460854506983994 0.4460854506983994 0.4460854506983994 0.4460854506983994 0.436496473549548 0.436496473549548 
0.436496473549548 0.436496473549548 0.422115340343829 0.422115340343829 0.422115340343829 0.422115340343829 0.4030969110203069 0.4030969110203069 0.4030969110203069 
0.4030969110203069 0.3796534414676705 0.3796534414676705 0.3796534414676705 0.3796534414676705 0.3520652532641602 0.3520652532641602 0.3520652532641602 0.3520652532641602 
0.3206895275355883 0.3206895275355883 0.3206895275355883 0.3206895275355883 0.2859598296228615 0.2859598296228615 0.2859598296228615 0.2859598296228615 0.2483663907877731 
0.2483663907877731 0.2483663907877731 0.2483663907877731 0.2084131523560094 0.2084131523560094 0.2084131523560094 0.2084131523560094 0.1665599504263408 0.1665599504263408 
0.1665599504263408 0.1665599504263408 0.1231704809814272 0.1231704809814272 0.1231704809814272 0.1231704809814272 0.0784941783322364 0.0784941783322364 0.0784941783322364 
0.0784941783322364 0.0326951580719775 0.0326951580719775 0.0326951580719775 0.0326951580719775 -0.01404128676467664 -0.01404128676467664 -0.01404128676467664 -0.01404128676467664 
-0.06151153885593302 -0.06151153885593302 -0.06151153885593302 -0.06151153885593302 -0.108870951352352 -0.108870951352352 -0.108870951352352 -0.108870951352352 -0.1571609939126887 
-0.1571609939126887 -0.1571609939126887 -0.1571609939126887 -0.1974073982508633 -0.1974073982508633 -0.1974073982508633 -0.1974073982508633 -0.2653445550213078 -0.2653445550213078 
-0.2653445550213078 -0.2653445550213078 -0.3548242747611055 -0.3548242747611055 -0.3548242747611055 -0.3548242747611055 -0.3796131677826665 -0.3796131677826665 -0.3796131677826665 
-0.3796131677826665 -0.4131717954325732 -0.4131717954325732 -0.4131717954325732 -0.4131717954325732 -0.4450778529805033 -0.4450778529805033 -0.4450778529805033 -0.4450778529805033 
-0.4726412728451217 -0.4726412728451217 -0.4726412728451217 -0.4726412728451217 -0.4951245330155586 -0.4951245330155586 -0.4951245330155586 -0.4951245330155586 -0.512269810231752 
-0.512269810231752 -0.512269810231752 -0.512269810231752 -0.5239222927113065 -0.5239222927113065 -0.5239222927113065 -0.5239222927113065 -0.5299493410658808 -0.5299493410658808 
-0.5299493410658808 -0.5299493410658808 -0.530248862507247 -0.530248862507247 -0.530248862507247 -0.530248862507247 -0.5247727575906271 -0.5247727575906271 -0.5247727575906271 
-0.5247727575906271 -0.5135427219332713 -0.5135427219332713 -0.5135427219332713 -0.5135427219332713 -0.496663890009321 -0.496663890009321 -0.496663890009321 -0.496663890009321 
-0.4743212378253449 -0.4743212378253449 -0.4743212378253449 -0.4743212378253449 -0.4467686549868209 -0.4467686549868209 -0.4467686549868209 -0.4467686549868209 -0.4143179279805612 
-0.4143179279805612 -0.4143179279805612 -0.4143179279805612 -0.3773306358213207 -0.3773306358213207 -0.3773306358213207 -0.3773306358213207 -0.3362139373409297 -0.3362139373409297 
-0.3362139373409297 -0.3362139373409297 -0.2914174415019648 -0.2914174415019648 -0.2914174415019648 -0.2914174415019648 -0.2434300183489048 -0.2434300183489048 -0.2434300183489048 
-0.2434300183489048 -0.1927755413333478 -0.1927755413333478 -0.1927755413333478 -0.1927755413333478 -0.1400076183880564 -0.1400076183880564 -0.1400076183880564 -0.1400076183880564 
-0.08570373109345827 -0.08570373109345827 -0.08570373109345827 -0.08570373109345827 -0.0304590487063945 -0.0304590487063945 -0.0304590487063945 -0.0304590487063945 0.02512012519551113 
0.02512012519551113 0.02512012519551113 0.02512012519551113 0.08042339928599404 0.08042339928599404 0.08042339928599404 0.08042339928599404 0.1348436828464454 0.1348436828464454 
0.1348436828464454 0.1348436828464454 0.1877844461506417 0.1877844461506417 0.1877844461506417 0.1877844461506417 0.2386663658229194 0.2386663658229194 0.2386663658229194 
0.2386663658229194 0.2869332094089229 0.2869332094089229 0.2869332094089229 0.2869332094089229 0.3320572210278628 0.3320572210278628 0.3320572210278628 0.3320572210278628 
0.3735444136124159 0.3735444136124159 0.3735444136124159 0.3735444136124159 0.4109399614015902 0.4109399614015902 0.4109399614015902 0.4109399614015902 0.4438335849448954 
0.4438335849448954 0.4438335849448954 0.4438335849448954 0.4718645108224416 0.4718645108224416 0.4718645108224416 0.4718645108224416 0.4947255848204253 0.4947255848204253 
0.4947255848204253 0.4947255848204253 0.5121663234639952 0.5121663234639952 0.5121663234639952 0.5121663234639952 0.5239949126965773 0.5239949126965773 0.5239949126965773 
0.5239949126965773 0.5300811376014685 0.5300811376014685 0.5300811376014685 0.5300811376014685 0.5303608970104943 0.5303608970104943 0.5303608970104943 0.5303608970104943 
0.5248331963355291 0.5248331963355291 0.5248331963355291 0.5248331963355291 0.5135533027815664 0.5135533027815664 0.5135533027815664 0.5135533027815664 0.4966376651172649 
0.4966376651172649 0.4966376651172649 0.4966376651172649 0.4742662673430477 0.4742662673430477 0.4742662673430477 0.4742662673430477 0.4466885153159854 0.4466885153159854 
0.4466885153159854 0.4466885153159854 0.4142338053213926 0.4142338053213926 0.4142338053213926 0.4142338053213926 0.3773215212381235 0.3773215212381235 0.3773215212381235 
0.3773215212381235 0.3364609780148334 0.3364609780148334 0.3364609780148334 0.3364609780148334 0.2922286535525834 0.2922286535525834 0.2922286535525834 0.2922286535525834 
0.2452183821232053 0.2452183821232053 0.2452183821232053 0.2452183821232053 0.1959734273243755 0.1959734273243755 0.1959734273243755 0.1959734273243755 0.1449246253090502 
0.1449246253090502 0.1449246253090502 0.1449246253090502 0.09236771372928433 0.09236771372928433 0.09236771372928433 0.09236771372928433 0.03849597262760358 0.03849597262760358 
0.03849597262760358 0.03849597262760358 -0.01647538258089561 -0.01647538258089561 -0.01647538258089561 -0.01647538258089561 -0.07231076246684107 -0.07231076246684107 -0.07231076246684107 
-0.07231076246684107 -0.1280271930646675 -0.1280271930646675 -0.1280271930646675 -0.1280271930646675 -0.1848189523958603 -0.1848189523958603 -0.1848189523958603 -0.1848189523958603 
-0.2323152155544676 -0.2323152155544676 -0.2323152155544676 -0.2323152155544676 -0.3120081058392896 -0.3120081058392896 -0.3120081058392896 -0.3120081058392896 -0.4085798554033955 
-0.4085798554033955 -0.4085798554033955 -0.4085798554033955 -0.4372964975154732 -0.4372964975154732 -0.4372964975154732 -0.4372964975154732 -0.4759919839147368 -0.4759919839147368 
-0.4759919839147368 -0.4759919839147368 -0.5126728829892933 -0.5126728829892933 -0.5126728829892933 -0.5126728829892933 -0.5443470062572759 -0.5443470062572759 -0.5443470062572759 
-0.5443470062572759 -0.5702021834458985 -0.5702021834458985 -0.5702021834458985 -0.5702021834458985 -0.5899415252558978 -0.5899415252558978 -0.5899415252558978 -0.5899415252558978 
-0.6033744448165103 -0.6033744448165103 -0.6033744448165103 -0.6033744448165103 -0.6103363630407093 -0.6103363630407093 -0.6103363630407093 -0.6103363630407093 -0.6107005863618433 
-0.6107005863618433 -0.6107005863618433 -0.6107005863618433 -0.6044062072959424 -0.6044062072959424 -0.6044062072959424 -0.6044062072959424 -0.5914798070515748 -0.5914798070515748 
-0.5914798070515748 -0.5914798070515748 -0.5720440752087056 -0.5720440752087056 -0.5720440752087056 -0.5720440752087056 -0.546313232545762 -0.546313232545762 -0.546313232545762 
-0.546313232545762 -0.5145809169956345 -0.5145809169956345 -0.5145809169956345 -0.5145809169956345 -0.4772069240753667 -0.4772069240753667 -0.4772069240753667 -0.4772069240753667 
-0.4346082754433132 -0.4346082754433132 -0.4346082754433132 -0.4346082754433132 -0.3872539707437341 -0.3872539707437341 -0.3872539707437341 -0.3872539707437341 -0.3356616301543991 
-0.3356616301543991 -0.3356616301543991 -0.3356616301543991 -0.2803940248135899 -0.2803940248135899 -0.2803940248135899 -0.2803940248135899 -0.2220543304997389 -0.2220543304997389 
-0.2220543304997389 -0.2220543304997389 -0.1612801222092726 -0.1612801222092726 -0.1612801222092726 -0.1612801222092726 -0.09873656640938934 -0.09873656640938934 -0.09873656640938934 
-0.09873656640938934 -0.03510919895990403 -0.03510919895990403 -0.03510919895990403 -0.03510919895990403 0.02890369152557815 0.02890369152557815 0.02890369152557815 0.02890369152557815 
0.09259916909215421 0.09259916909215421 0.09259916909215421 0.09259916909215421 0.1552780911945384 0.1552780911945384 0.1552780911945384 0.1552780911945384 0.216253405449629 
0.216253405449629 0.216253405449629 0.216253405449629 0.2748577942104142 0.2748577942104142 0.2748577942104142 0.2748577942104142 0.330450501587605 0.330450501587605 
0.330450501587605 0.330450501587605 0.3824236030004538 0.3824236030004538 0.3824236030004538 0.3824236030004538 0.4302081391477922 0.4302081391477922 0.4302081391477922 
0.4302081391477922 0.4732803236865902 0.4732803236865902 0.4732803236865902 0.4732803236865902 0.5111676868242505 0.5111676868242505 0.5111676868242505 0.5111676868242505 
0.5434546981792978 0.5434546981792978 0.5434546981792978 0.5434546981792978 0.5697874251487156 0.5697874251487156 0.5697874251487156 0.5697874251487156 0.5898771386687045 
0.5898771386687045 0.5898771386687045 0.5898771386687045 0.6035032469527378 0.6035032469527378 0.6035032469527378 0.6035032469527378 0.6105166416172134 0.6105166416172134 
0.6105166416172134 0.6105166416172134 0.6108425912875 0.6108425912875 0.6108425912875 0.6108425912875 0.6044780461860582 0.6044780461860582 0.6044780461860582 
0.6044780461860582 0.5914887438457832 0.5914887438457832 0.5914887438457832 0.5914887438457832 0.5720093374285117 0.5720093374285117 0.5720093374285117 0.5720093374285117 
0.5462467787137881 0.5462467787137881 0.5462467787137881 0.5462467787137881 0.5144880854220657 0.5144880854220657 0.5144880854220657 0.5144880854220657 0.4771120446081419 
0.4771120446081419 0.4771120446081419 0.4771120446081419 0.4346010919333458 0.4346010919333458 0.4346010919333458 0.4346010919333458 0.3875409510033474 0.3875409510033474 
0.3875409510033474 0.3875409510033474 0.3365949727654389 0.3365949727654389 0.3365949727654389 0.3365949727654389 0.2824473682941363 0.2824473682941363 0.2824473682941363 
0.2824473682941363 0.2257253040208577 0.2257253040208577 0.2257253040208577 0.2257253040208577 0.166927381421306 0.166927381421306 0.166927381421306 0.166927381421306 
0.1063965557404767 0.1063965557404767 0.1063965557404767 0.1063965557404767 0.04435652191840623 0.04435652191840623 0.04435652191840623 0.04435652191840623 -0.01894617543241316 
-0.01894617543241316 -0.01894617543241316 -0.01894617543241316 -0.08324224031077278 -0.08324224031077278 -0.08324224031077278 -0.08324224031077278 -0.1474103582169678 -0.1474103582169678 
-0.1474103582169678 -0.1474103582169678 -0.2127926851368495 -0.2127926851368495 -0.2127926851368495 -0.2127926851368495 -0.2676282980114552 -0.2676282980114552 -0.2676282980114552 
-0.2676282980114552 -0.3591820226049642 -0.3591820226049642 -0.3591820226049642 -0.3591820226049642 -0.4589168391092283 -0.4589168391092283 -0.4589168391092283 -0.4589168391092283 
-0.4912275934007054 -0.4912275934007054 -0.4912275934007054 -0.4912275934007054 -0.5347702538103342 -0.5347702538103342 -0.5347702538103342 -0.5347702538103342 -0.5760009984815879 
-0.5760009984815879 -0.5760009984815879 -0.5760009984815879 -0.6115623009893456 -0.6115623009893456 -0.6115623009893456 -0.6115623009893456 -0.6405719145643419 -0.6405719145643419 
-0.6405719145643419 -0.6405719145643419 -0.6627181742062273 -0.6627181742062273 -0.6627181742062273 -0.6627181742062273 -0.6777956030865876 -0.6777956030865876 -0.6777956030865876 
-0.6777956030865876 -0.6856182707623508 -0.6856182707623508 -0.6856182707623508 -0.6856182707623508 -0.6860374179119995 -0.6860374179119995 -0.6860374179119995 -0.6860374179119995 
-0.6789784032648903 -0.6789784032648903 -0.6789784032648903 -0.6789784032648903 -0.6644675105543487 -0.6644675105543487 -0.6644675105543487 -0.6644675105543487 -0.6426411667612153 
-0.6426411667612153 -0.6426411667612153 -0.6426411667612153 -0.6137400196096473 -0.6137400196096473 -0.6137400196096473 -0.6137400196096473 -0.5780944112094465 -0.5780944112094465 
-0.5780944112094465 -0.5780944112094465 -0.5361095917944375 -0.5361095917944375 -0.5361095917944375 -0.5361095917944375 -0.4882550344912417 -0.4882550344912417 -0.4882550344912417 
-0.4882550344912417 -0.4350581808189845 -0.4350581808189845 -0.4350581808189845 -0.4350581808189845 -0.377100671996723 -0.377100671996723 -0.377100671996723 -0.377100671996723 
-0.3150145729707077 -0.3150145729707077 -0.3150145729707077 -0.3150145729707077 -0.2494772652204645 -0.2494772652204645 -0.2494772652204645 -0.2494772652204645 -0.1812048316482498 
-0.1812048316482498 -0.1812048316482498 -0.1812048316482498 -0.1109444402275502 -0.1109444402275502 -0.1109444402275502 -0.1109444402275502 -0.03946618799639695 -0.03946618799639695 
-0.03946618799639695 -0.03946618799639695 0.03244550427104469 0.03244550427104469 0.03244550427104469 0.03244550427104469 0.1040010044047781 0.1040010044047781 0.1040010044047781 
0.1040010044047781 0.1744149187376547 0.1744149187376547 0.1744149187376547 0.1744149187376547 0.2429153788714775 0.2429153788714775 0.2429153788714775 0.2429153788714775 
0.3087526314339933 0.3087526314339933 0.3087526314339933 0.3087526314339933 0.3712067482238138 0.3712067482238138 0.3712067482238138 0.3712067482238138 0.4295947208216994 
0.4295947208216994 0.4295947208216994 0.4295947208216994 0.4832773794608267 0.4832773794608267 0.4832773794608267 0.4832773794608267 0.5316663562455577 0.5316663562455577 
0.5316663562455577 0.5316663562455577 0.5742309246034054 0.5742309246034054 0.5742309246034054 0.5742309246034054 0.6105042411539773 0.6105042411539773 0.6105042411539773 
0.6105042411539773 0.6400885639372376 0.6400885639372376 0.6400885639372376 0.6400885639372376 0.6626594463114072 0.6626594463114072 0.6626594463114072 0.6626594463114072 
0.6779693553299133 0.6779693553299133 0.6779693553299133 0.6779693553299133 0.6858511534395848 0.6858511534395848 0.6858511534395848 0.6858511534395848 0.6862200766123038 
0.6862200766123038 0.6862200766123038 0.6862200766123038 0.6790723083267882 0.6790723083267882 0.6790723083267882 0.6790723083267882 0.6644822136900232 0.6644822136900232 
0.6644822136900232 0.6644822136900232 0.6426016160428882 0.6426016160428882 0.6426016160428882 0.6426016160428882 0.6136632175663936 0.6136632175663936 0.6136632175663936 
0.6136632175663936 0.5779890387226513 0.5779890387226513 0.5779890387226513 0.5779890387226513 0.5360042224929509 0.5360042224929509 0.5360042224929509 0.5360042224929509 
0.4882501362112597 0.4882501362112597 0.4882501362112597 0.4882501362112597 0.4353839678752096 0.4353839678752096 0.4353839678752096 0.4353839678752096 0.3781502915291161 
0.3781502915291161 0.3781502915291161 0.3781502915291161 0.3173177917807696 0.3173177917807696 0.3173177917807696 0.3173177917807696 0.2535921302042692 0.2535921302042692 
0.2535921302042692 0.2535921302042692 0.1875354503755495 0.1875354503755495 0.1875354503755495 0.1875354503755495 0.1195351874854699 0.1195351874854699 0.1195351874854699 
0.1195351874854699 0.04984392225644019 0.04984392225644019 0.04984392225644019 0.04984392225644019 -0.02126221648859482 -0.02126221648859482 -0.02126221648859482 -0.02126221648859482 
-0.09348173147015987 -0.09348173147015987 -0.09348173147015987 -0.09348173147015987 -0.1655654417157894 -0.1655654417157894 -0.1655654417157894 -0.1655654417157894 -0.2389920889779731 
-0.2389920889779731 -0.2389920889779731 -0.2389920889779731 -0.3006669848906504 -0.3006669848906504 -0.3006669848906504 -0.3006669848906504 -0.4034226245874458 -0.4034226245874458 
-0.4034226245874458 -0.4034226245874458 -0.5045041972705149 -0.5045041972705149 -0.5045041972705149 -0.5045041972705149 -0.5400304035043733 -0.5400304035043733 -0.5400304035043733 
-0.5400304035043733 -0.5879312110602067 -0.5879312110602067 -0.5879312110602067 -0.5879312110602067 -0.633294200939327 -0.633294200939327 -0.633294200939327 -0.633294200939327 
-0.6724061362163496 -0.6724061362163496 -0.6724061362163496 -0.6724061362163496 -0.7042943612569619 -0.7042943612569619 -0.7042943612569619 -0.7042943612569619 -0.7286257258549488 
-0.7286257258549488 -0.7286257258549488 -0.7286257258549488 -0.7451854464189341 -0.7451854464189341 -0.7451854464189341 -0.7451854464189341 -0.7537760132744716 -0.7537760132744716 
-0.7537760132744716 -0.7537760132744716 -0.7542352317162484 -0.7542352317162484 -0.7542352317162484 -0.7542352317162484 -0.7464788708777715 -0.7464788708777715 -0.7464788708777715 
-0.7464788708777715 -0.730532712005179 -0.730532712005179 -0.730532712005179 -0.730532712005179 -0.7065441119584615 -0.7065441119584615 -0.7065441119584615 -0.7065441119584615 
-0.6747757412413313 -0.6747757412413313 -0.6747757412413313 -0.6747757412413313 -0.6355900183007309 -0.6355900183007309 -0.6355900183007309 -0.6355900183007309 -0.5894327342664221 
-0.5894327342664221 -0.5894327342664221 -0.5894327342664221 -0.5368207895561194 -0.5368207895561194 -0.5368207895561194 -0.5368207895561194 -0.4783348675295849 -0.4783348675295849 
-0.4783348675295849 -0.4783348675295849 -0.41461494852324 -0.41461494852324 -0.41461494852324 -0.41461494852324 -0.3463561203629897 -0.3463561203629897 -0.3463561203629897 
-0.3463561203629897 -0.2743030719473113 -0.2743030719473113 -0.2743030719473113 -0.2743030719473113 -0.1992429533299096 -0.1992429533299096 -0.1992429533299096 -0.1992429533299096 
-0.1219970906414459 -0.1219970906414459 -0.1219970906414459 -0.1219970906414459 -0.04341204415530379 -0.04341204415530379 -0.04341204415530379 -0.04341204415530379 0.0356498530468938 
0.0356498530468938 0.0356498530468938 0.0356498530468938 0.1143205089145945 0.1143205089145945 0.1143205089145945 0.1143205089145945 0.1917364454915551 0.1917364454915551 
0.1917364454915551 0.1917364454915551 0.2670489989794043 0.2670489989794043 0.2670489989794043 0.2670489989794043 0.3394337785349487 0.3394337785349487 0.3394337785349487 
0.3394337785349487 0.4080991814663201 0.4080991814663201 0.4080991814663201 0.4080991814663201 0.4722942342837866 0.4722942342837866 0.4722942342837866 0.4722942342837866 
0.5313162174188144 0.5313162174188144 0.5313162174188144 0.5313162174188144 0.584518302823854 0.584518302823854 0.584518302823854 0.584518302823854 0.6313170163198666 
0.6313170163198666 0.6313170163198666 0.6313170163198666 0.6711990462255361 0.6711990462255361 0.6711990462255361 0.6711990462255361 0.7037270008306812 0.7037270008306812 
0.7037270008306812 0.7037270008306812 0.7285441486421315 0.7285441486421315 0.7285441486421315 0.7285441486421315 0.745378521422928 0.745378521422928 0.745378521422928 
0.745378521422928 0.7540464582106595 0.7540464582106595 0.7540464582106595 0.7540464582106595 0.7544544127086792 0.7544544127086792 0.7544544127086792 0.7544544127086792 
0.7465979146367865 0.7465979146367865 0.7465979146367865 0.7465979146367865 0.7305589853699185 0.7305589853699185 0.7305589853699185 0.7305589853699185 0.7065050577033039 
0.7065050577033039 0.7065050577033039 0.7065050577033039 0.6746920406067407 0.6746920406067407 0.6746920406067407 0.6746920406067407 0.6354737711761116 0.6354737711761116 
0.6354737711761116 0.6354737711761116 0.5893172996422316 0.5893172996422316 0.5893172996422316 0.5893172996422316 0.5368172338939183 0.5368172338939183 0.5368172338939183 
0.5368172338939183 0.478695399361552 0.478695399361552 0.478695399361552 0.478695399361552 0.4157698188614851 0.4157698188614851 0.4157698188614851 0.4157698188614851 
0.3488856131249754 0.3488856131249754 0.3488856131249754 0.3488856131249754 0.2788195450870862 0.2788195450870862 0.2788195450870862 0.2788195450870862 0.2061914254740293 
0.2061914254740293 0.2061914254740293 0.2061914254740293 0.1314291675447379 0.1314291675447379 0.1314291675447379 0.1314291675447379 0.05481169926945829 0.05481169926945829 
0.05481169926945829 0.05481169926945829 -0.02335801103934135 -0.02335801103934135 -0.02335801103934135 -0.02335801103934135 -0.102749412137526 -0.102749412137526 -0.102749412137526 
-0.102749412137526 -0.1819973039228344 -0.1819973039228344 -0.1819973039228344 -0.1819973039228344 -0.2627097723112951 -0.2627097723112951 -0.2627097723112951 -0.2627097723112951 
-0.3305492847213272 -0.3305492847213272 -0.3305492847213272 -0.3305492847213272 -0.4434999226882648 -0.4434999226882648 -0.4434999226882648 -0.4434999226882648 -0.5446410154733087 
-0.5446410154733087 -0.5446410154733087 -0.5446410154733087 -0.5829922239592267 -0.5829922239592267 -0.5829922239592267 -0.5829922239592267 -0.6347094692363431 -0.6347094692363431 
-0.6347094692363431 -0.6347094692363431 -0.6836971086010339 -0.6836971086010339 -0.6836971086010339 -0.6836971086010339 -0.7259383932871113 -0.7259383932871113 -0.7259383932871113 
-0.7259383932871113 -0.7603743059092811 -0.7603743059092811 -0.7603743059092811 -0.7603743059092811 -0.7866422373985028 -0.7866422373985028 -0.7866422373985028 -0.7866422373985028 
-0.8045130935888071 -0.8045130935888071 -0.8045130935888071 -0.8045130935888071 -0.8137786459145113 -0.8137786459145113 -0.8137786459145113 -0.8137786459145113 -0.8142678784270468 
-0.8142678784270468 -0.8142678784270468 -0.8142678784270468 -0.8058917939248207 -0.8058917939248207 -0.8058917939248207 -0.8058917939248207 -0.7886782288718376 -0.7886782288718376 
-0.7886782288718376 -0.7886782288718376 -0.762784922153444 -0.762784922153444 -0.762784922153444 -0.762784922153444 -0.7284935879540193 -0.7284935879540193 -0.7284935879540193 
-0.7284935879540193 -0.6861939187674533 -0.6861939187674533 -0.6861939187674533 -0.6861939187674533 -0.6363663382464571 -0.6363663382464571 -0.6363663382464571 -0.6363663382464571 