Title = Result/Linear_Advection_2D/FVM/MLP_u1_Least_Square/Sine_Wave_2D/Quad60/
FileType = Solution
Variables = q
Zone T = Result/Linear_Advection_2D/FVM/MLP_u1_Least_Square/Sine_Wave_2D/Quad60/
ZoneType = FETriangle
Nodes = 14400
Elements = 7200
DataPacking = Block
StrandID = 17
SolutionTime = 1.6
0.4794300545306877 0.4794300545306877 0.4794300545306877 0.4794300545306877 0.4258992687586012 0.4258992687586012 0.4258992687586012 0.4258992687586012 0.3434139130351952 0.3434139130351952 
0.3434139130351952 0.3434139130351952 0.2516375957593681 0.2516375957593681 0.2516375957593681 0.2516375957593681 0.1558306883320688 0.1558306883320688 0.1558306883320688 
0.1558306883320688 0.05801245041679594 0.05801245041679594 0.05801245041679594 0.05801245041679594 -0.0405090002510132 -0.0405090002510132 -0.0405090002510132 -0.0405090002510132 
-0.1385848217682618 -0.1385848217682618 -0.1385848217682618 -0.1385848217682618 -0.2351270355240161 -0.2351270355240161 -0.2351270355240161 -0.2351270355240161 -0.3290883128951115 
-0.3290883128951115 -0.3290883128951115 -0.3290883128951115 -0.4194500573518789 -0.4194500573518789 -0.4194500573518789 -0.4194500573518789 -0.5052235481105631 -0.5052235481105631 
-0.5052235481105631 -0.5052235481105631 -0.5854643396656878 -0.5854643396656878 -0.5854643396656878 -0.5854643396656878 -0.6592896884179996 -0.6592896884179996 -0.6592896884179996 
-0.6592896884179996 -0.7258905135473444 -0.7258905135473444 -0.7258905135473444 -0.7258905135473444 -0.7845385583814042 -0.7845385583814042 -0.7845385583814042 -0.7845385583814042 
-0.8345922224494495 -0.8345922224494495 -0.8345922224494495 -0.8345922224494495 -0.8755024799665629 -0.8755024799665629 -0.8755024799665629 -0.8755024799665629 -0.9068199333644503 
-0.9068199333644503 -0.9068199333644503 -0.9068199333644503 -0.9282002913305922 -0.9282002913305922 -0.9282002913305922 -0.9282002913305922 -0.9394027605079215 -0.9394027605079215 
-0.9394027605079215 -0.9394027605079215 -0.9403093009720067 -0.9403093009720067 -0.9403093009720067 -0.9403093009720067 -0.9309289525617103 -0.9309289525617103 -0.9309289525617103 
-0.9309289525617103 -0.9113445708454929 -0.9113445708454929 -0.9113445708454929 -0.9113445708454929 -0.8817842817278525 -0.8817842817278525 -0.8817842817278525 -0.8817842817278525 
-0.8425919624755356 -0.8425919624755356 -0.8425919624755356 -0.8425919624755356 -0.7942383138410474 -0.7942383138410474 -0.7942383138410474 -0.7942383138410474 -0.7373165665470904 
-0.7373165665470904 -0.7373165665470904 -0.7373165665470904 -0.6725335984979065 -0.6725335984979065 -0.6725335984979065 -0.6725335984979065 -0.6006887130483159 -0.6006887130483159 
-0.6006887130483159 -0.6006887130483159 -0.5226425943517666 -0.5226425943517666 -0.5226425943517666 -0.5226425943517666 -0.4392777625466938 -0.4392777625466938 -0.4392777625466938 
-0.4392777625466938 -0.351459008133189 -0.351459008133189 -0.351459008133189 -0.351459008133189 -0.2600042487504609 -0.2600042487504609 -0.2600042487504609 -0.2600042487504609 
-0.165676931754996 -0.165676931754996 -0.165676931754996 -0.165676931754996 -0.06920676083417851 -0.06920676083417851 -0.06920676083417851 -0.06920676083417851 0.02866279230521009 
0.02866279230521009 0.02866279230521009 0.02866279230521009 0.1271116051924195 0.1271116051924195 0.1271116051924195 0.1271116051924195 0.225183983618412 0.225183983618412 
0.225183983618412 0.225183983618412 0.3217553512511014 0.3217553512511014 0.3217553512511014 0.3217553512511014 0.4155410738066229 0.4155410738066229 0.4155410738066229 
0.4155410738066229 0.5051522396756241 0.5051522396756241 0.5051522396756241 0.5051522396756241 0.5891886321291675 0.5891886321291675 0.5891886321291675 0.5891886321291675 
0.6663467950169475 0.6663467950169475 0.6663467950169475 0.6663467950169475 0.7355157508388732 0.7355157508388732 0.7355157508388732 0.7355157508388732 0.7958364678661909 
0.7958364678661909 0.7958364678661909 0.7958364678661909 0.8467126780759515 0.8467126780759515 0.8467126780759515 0.8467126780759515 0.8877765425028992 0.8877765425028992 
0.8877765425028992 0.8877765425028992 0.918826886618175 0.918826886618175 0.918826886618175 0.918826886618175 0.939762065547802 0.939762065547802 0.939762065547802 
0.939762065547802 0.9505219993979958 0.9505219993979958 0.9505219993979958 0.9505219993979958 0.9510811161467085 0.9510811161467085 0.9510811161467085 0.9510811161467085 
0.9414561661553325 0.9414561661553325 0.9414561661553325 0.9414561661553325 0.9216616933089694 0.9216616933089694 0.9216616933089694 0.9216616933089694 0.8919044291281615 
0.8919044291281615 0.8919044291281615 0.8919044291281615 0.8521631276015668 0.8521631276015668 0.8521631276015668 0.8521631276015668 0.803974000791271 0.803974000791271 
0.803974000791271 0.803974000791271 0.7430838271079404 0.7430838271079404 0.7430838271079404 0.7430838271079404 0.6898435591764942 0.6898435591764942 0.6898435591764942 
0.6898435591764942 0.5643604678913422 0.5643604678913422 0.5643604678913422 0.5643604678913422 0.484502491709901 0.484502491709901 0.484502491709901 0.484502491709901 
0.4304263604292103 0.4304263604292103 0.4304263604292103 0.4304263604292103 0.3471469532496646 0.3471469532496646 0.3471469532496646 0.3471469532496646 0.2544047846830773 
0.2544047846830773 0.2544047846830773 0.2544047846830773 0.1575633725994795 0.1575633725994795 0.1575633725994795 0.1575633725994795 0.05868031884169547 0.05868031884169547 
0.05868031884169547 0.05868031884169547 -0.0409157109286386 -0.0409157109286386 -0.0409157109286386 -0.0409157109286386 -0.1400613615448497 -0.1400613615448497 -0.1400613615448497 
-0.1400613615448497 -0.2376564081893893 -0.2376564081893893 -0.2376564081893893 -0.2376564081893893 -0.3326422195206356 -0.3326422195206356 -0.3326422195206356 -0.3326422195206356 
-0.4239892251074566 -0.4239892251074566 -0.4239892251074566 -0.4239892251074566 -0.5106978666119314 -0.5106978666119314 -0.5106978666119314 -0.5106978666119314 -0.5918132476770759 
-0.5918132476770759 -0.5918132476770759 -0.5918132476770759 -0.6664429272692087 -0.6664429272692087 -0.6664429272692087 -0.6664429272692087 -0.7337691136221633 -0.7337691136221633 
-0.7337691136221633 -0.7337691136221633 -0.7930558330339825 -0.7930558330339825 -0.7930558330339825 -0.7930558330339825 -0.8436546024998531 -0.8436546024998531 -0.8436546024998531 
-0.8436546024998531 -0.8850101957185742 -0.8850101957185742 -0.8850101957185742 -0.8850101957185742 -0.9166684951975328 -0.9166684951975328 -0.9166684951975328 -0.9166684951975328 
-0.938280029130832 -0.938280029130832 -0.938280029130832 -0.938280029130832 -0.9496027102050943 -0.9496027102050943 -0.9496027102050943 -0.9496027102050943 -0.9505231448584017 
-0.9505231448584017 -0.9505231448584017 -0.9505231448584017 -0.9410385407898394 -0.9410385407898394 -0.9410385407898394 -0.9410385407898394 -0.9212481267931835 -0.9212481267931835 
-0.9212481267931835 -0.9212481267931835 -0.891371145361618 -0.891371145361618 -0.891371145361618 -0.891371145361618 -0.8517562869061246 -0.8517562869061246 -0.8517562869061246 
-0.8517562869061246 -0.8028793018694615 -0.8028793018694615 -0.8028793018694615 -0.8028793018694615 -0.7453401347975054 -0.7453401347975054 -0.7453401347975054 -0.7453401347975054 
-0.6798535301045803 -0.6798535301045803 -0.6798535301045803 -0.6798535301045803 -0.6072277088742175 -0.6072277088742175 -0.6072277088742175 -0.6072277088742175 -0.5283328833834087 
-0.5283328833834087 -0.5283328833834087 -0.5283328833834087 -0.4440614112628525 -0.4440614112628525 -0.4440614112628525 -0.4440614112628525 -0.3552878427339735 -0.3552878427339735 
-0.3552878427339735 -0.3552878427339735 -0.2628394122479709 -0.2628394122479709 -0.2628394122479709 -0.2628394122479709 -0.16748821062693 -0.16748821062693 -0.16748821062693 
-0.16748821062693 -0.06997196777534798 -0.06997196777534798 -0.06997196777534798 -0.06997196777534798 0.02895802527172039 0.02895802527172039 0.02895802527172039 0.02895802527172039 
0.1284733399316277 0.1284733399316277 0.1284733399316277 0.1284733399316277 0.2276087079487325 0.2276087079487325 0.2276087079487325 0.2276087079487325 0.3252281159319256 
0.3252281159319256 0.3252281159319256 0.3252281159319256 0.4200334735742959 0.4200334735742959 0.4200334735742959 0.4200334735742959 0.5106208163857652 0.5106208163857652 
0.5106208163857652 0.5106208163857652 0.5955742485112825 0.5955742485112825 0.5955742485112825 0.5955742485112825 0.6735753325760963 0.6735753325760963 0.6735753325760963 
0.6735753325760963 0.7435001519022568 0.7435001519022568 0.7435001519022568 0.7435001519022568 0.8044796589564981 0.8044796589564981 0.8044796589564981 0.8044796589564981 
0.8559106815951072 0.8559106815951072 0.8559106815951072 0.8559106815951072 0.8974211118414132 0.8974211118414132 0.8974211118414132 0.8974211118414132 0.9288081709429348 
0.9288081709429348 0.9288081709429348 0.9288081709429348 0.9499680983968669 0.9499680983968669 0.9499680983968669 0.9499680983968669 0.9608421641927812 0.9608421641927812 
0.9608421641927812 0.9608421641927812 0.9614099441753267 0.9614099441753267 0.9614099441753267 0.9614099441753267 0.9516786640153697 0.9516786640153697 0.9516786640153697 
0.9516786640153697 0.9316755178175966 0.9316755178175966 0.9316755178175966 0.9316755178175966 0.9016000203510877 0.9016000203510877 0.9016000203510877 0.9016000203510877 
0.8614295379291552 0.8614295379291552 0.8614295379291552 0.8614295379291552 0.812722069305053 0.812722069305053 0.812722069305053 0.812722069305053 0.7511646157130183 
0.7511646157130183 0.7511646157130183 0.7511646157130183 0.6973270874686169 0.6973270874686169 0.6973270874686169 0.6973270874686169 0.570721850206106 0.570721850206106 
0.570721850206106 0.570721850206106 0.4887575106247499 0.4887575106247499 0.4887575106247499 0.4887575106247499 0.4340944486399643 0.4340944486399643 0.4340944486399643 
0.4340944486399643 0.3500841901597156 0.3500841901597156 0.3500841901597156 0.3500841901597156 0.256568873162186 0.256568873162186 0.256568873162186 0.256568873162186 
0.1589184638098015 0.1589184638098015 0.1589184638098015 0.1589184638098015 0.05920325379389522 0.05920325379389522 0.05920325379389522 0.05920325379389522 -0.04123602440705815 
-0.04123602440705815 -0.04123602440705815 -0.04123602440705815 -0.1412249070823171 -0.1412249070823171 -0.1412249070823171 -0.1412249070823171 -0.2396531338333548 -0.2396531338333548 
-0.2396531338333548 -0.2396531338333548 -0.3354527945818163 -0.3354527945818163 -0.3354527945818163 -0.3354527945818163 -0.4275851802551781 -0.4275851802551781 -0.4275851802551781 
-0.4275851802551781 -0.5150414488558905 -0.5150414488558905 -0.5150414488558905 -0.5150414488558905 -0.5968575662149642 -0.5968575662149642 -0.5968575662149642 -0.5968575662149642 
-0.6721325522966661 -0.6721325522966661 -0.6721325522966661 -0.6721325522966661 -0.7400410218232305 -0.7400410218232305 -0.7400410218232305 -0.7400410218232305 -0.7998403847047075 
-0.7998403847047075 -0.7998403847047075 -0.7998403847047075 -0.8508763513917673 -0.8508763513917673 -0.8508763513917673 -0.8508763513917673 -0.892588582770979 -0.892588582770979 
-0.892588582770979 -0.892588582770979 -0.9245190521706524 -0.9245190521706524 -0.9245190521706524 -0.9245190521706524 -0.9463144686935309 -0.9463144686935309 -0.9463144686935309 
-0.9463144686935309 -0.957732755187049 -0.957732755187049 -0.957732755187049 -0.957732755187049 -0.9586547943820871 -0.9586547943820871 -0.9586547943820871 -0.9586547943820871 
-0.9491022807124074 -0.9491022807124074 -0.9491022807124074 -0.9491022807124074 -0.9291468343125217 -0.9291468343125217 -0.9291468343125217 -0.9291468343125217 -0.899020304949541 
-0.899020304949541 -0.899020304949541 -0.899020304949541 -0.8590709360810562 -0.8590709360810562 -0.8590709360810562 -0.8590709360810562 -0.8097786975582145 -0.8097786975582145 
-0.8097786975582145 -0.8097786975582145 -0.7517484457665582 -0.7517484457665582 -0.7517484457665582 -0.7517484457665582 -0.685701462483391 -0.685701462483391 -0.685701462483391 
-0.685701462483391 -0.6124531308126437 -0.6124531308126437 -0.6124531308126437 -0.6124531308126437 -0.5328813393761234 -0.5328813393761234 -0.5328813393761234 -0.5328813393761234 
-0.4478863694336167 -0.4478863694336167 -0.4478863694336167 -0.4478863694336167 -0.3583507252420093 -0.3583507252420093 -0.3583507252420093 -0.3583507252420093 -0.2651093183827034 
-0.2651093183827034 -0.2651093183827034 -0.2651093183827034 -0.168941397641822 -0.168941397641822 -0.168941397641822 -0.168941397641822 -0.07059127539838991 -0.07059127539838991 
-0.07059127539838991 -0.07059127539838991 0.02918350258076538 0.02918350258076538 0.02918350258076538 0.02918350258076538 0.1295480581446682 0.1295480581446682 0.1295480581446682 
0.1295480581446682 0.22952982039023 0.22952982039023 0.22952982039023 0.22952982039023 0.3279840554055645 0.3279840554055645 0.3279840554055645 0.3279840554055645 
0.4236022909892697 0.4236022909892697 0.4236022909892697 0.4236022909892697 0.5149687445913536 0.5149687445913536 0.5149687445913536 0.5149687445913536 0.6006549782412881 
0.6006549782412881 0.6006549782412881 0.6006549782412881 0.6793303648913875 0.6793303648913875 0.6793303648913875 0.6793303648913875 0.7498602928633133 0.7498602928633133 
0.7498602928633133 0.7498602928633133 0.811367297055922 0.811367297055922 0.811367297055922 0.811367297055922 0.8632422954027876 0.8632422954027876 0.8632422954027876 
0.8632422954027876 0.9051094987356471 0.9051094987356471 0.9051094987356471 0.9051094987356471 0.9367646301241593 0.9367646301241593 0.9367646301241593 0.9367646301241593 
0.9581025427372036 0.9581025427372036 0.9581025427372036 0.9581025427372036 0.9690664991710137 0.9690664991710137 0.9690664991710137 0.9690664991710137 0.9696331403491937 
0.9696331403491937 0.9696331403491937 0.9696331403491937 0.9598310291027188 0.9598310291027188 0.9598310291027188 0.9598310291027188 0.9396614848678714 0.9396614848678714 
0.9396614848678714 0.9396614848678714 0.9093348211532005 0.9093348211532005 0.9093348211532005 0.9093348211532005 0.8688254373553281 0.8688254373553281 0.8688254373553281 
0.8688254373553281 0.8197034885518466 0.8197034885518466 0.8197034885518466 0.8197034885518466 0.7576255383791373 0.7576255383791373 0.7576255383791373 0.7576255383791373 
0.7033002031646127 0.7033002031646127 0.7033002031646127 0.7033002031646127 0.5756754018759105 0.5756754018759105 0.5756754018759105 0.5756754018759105 0.4887571475634707 
0.4887571475634707 0.4887571475634707 0.4887571475634707 0.4340739551988846 0.4340739551988846 0.4340739551988846 0.4340739551988846 0.3500406808991073 0.3500406808991073 
0.3500406808991073 0.3500406808991073 0.2565240822608154 0.2565240822608154 0.2565240822608154 0.2565240822608154 0.158886512767573 0.158886512767573 0.158886512767573 
0.158886512767573 0.05919112503968666 0.05919112503968666 0.05919112503968666 0.05919112503968666 -0.04122458244092016 -0.04122458244092016 -0.04122458244092016 -0.04122458244092016 
-0.1411879908509682 -0.1411879908509682 -0.1411879908509682 -0.1411879908509682 -0.2395906111292765 -0.2395906111292765 -0.2395906111292765 -0.2395906111292765 -0.3353665085149639 
-0.3353665085149639 -0.3353665085149639 -0.3353665085149639 -0.4274785197393018 -0.4274785197393018 -0.4274785197393018 -0.4274785197393018 -0.5149185660874515 -0.5149185660874515 
-0.5149185660874515 -0.5149185660874515 -0.5967225970687391 -0.5967225970687391 -0.5967225970687391 -0.5967225970687391 -0.6719890817028564 -0.6719890817028564 -0.6719890817028564 
-0.6719890817028564 -0.739891879279362 -0.739891879279362 -0.739891879279362 -0.739891879279362 -0.7996876047297099 -0.7996876047297099 -0.7996876047297099 -0.7996876047297099 
-0.8507212123190961 -0.8507212123190961 -0.8507212123190961 -0.8507212123190961 -0.8924317048077144 -0.8924317048077144 -0.8924317048077144 -0.8924317048077144 -0.9243605270250274 
-0.9243605270250274 -0.9243605270250274 -0.9243605270250274 -0.9461549204132753 -0.9461549204132753 -0.9461549204132753 -0.9461549204132753 -0.9575702980770814 -0.9575702980770814 
-0.9575702980770814 -0.9575702980770814 -0.9584915085342974 -0.9584915085342974 -0.9584915085342974 -0.9584915085342974 -0.9489477132240688 -0.9489477132240688 -0.9489477132240688 
-0.9489477132240688 -0.9290008074765301 -0.9290008074765301 -0.9290008074765301 -0.9290008074765301 -0.8988841695760509 -0.8988841695760509 -0.8988841695760509 -0.8988841695760509 
-0.8589458805455511 -0.8589458805455511 -0.8589458805455511 -0.8589458805455511 -0.8096654351211671 -0.8096654351211671 -0.8096654351211671 -0.8096654351211671 -0.7516472388452422 
-0.7516472388452422 -0.7516472388452422 -0.7516472388452422 -0.685612565062936 -0.685612565062936 -0.685612565062936 -0.685612565062936 -0.6123767268565281 -0.6123767268565281 
-0.6123767268565281 -0.6123767268565281 -0.532817565143032 -0.532817565143032 -0.532817565143032 -0.532817565143032 -0.4478354161689824 -0.4478354161689824 -0.4478354161689824 
-0.4478354161689824 -0.3583130819444094 -0.3583130819444094 -0.3583130819444094 -0.3583130819444094 -0.2650859582863783 -0.2650859582863783 -0.2650859582863783 -0.2650859582863783 
-0.1689337866761843 -0.1689337866761843 -0.1689337866761843 -0.1689337866761843 -0.0706011278687404 -0.0706011278687404 -0.0706011278687404 -0.0706011278687404 0.02915465914122893 
0.02915465914122893 0.02915465914122893 0.02915465914122893 0.1294993746282709 0.1294993746282709 0.1294993746282709 0.1294993746282709 0.2294615073149818 0.2294615073149818 
0.2294615073149818 0.2294615073149818 0.3278975203718307 0.3278975203718307 0.3278975203718307 0.3278975203718307 0.423499970663566 0.423499970663566 0.423499970663566 
0.423499970663566 0.514853661455549 0.514853661455549 0.514853661455549 0.514853661455549 0.6005301492558721 0.6005301492558721 0.6005301492558721 0.6005301492558721 
0.6791982701342559 0.6791982701342559 0.6791982701342559 0.6791982701342559 0.7497225808352891 0.7497225808352891 0.7497225808352891 0.7497225808352891 0.8112247686832852 
0.8112247686832852 0.8112247686832852 0.8112247686832852 0.8630951000331915 0.8630951000331915 0.8630951000331915 0.8630951000331915 0.9049574514704962 0.9049574514704962 
0.9049574514704962 0.9049574514704962 0.93660755413401 0.93660755413401 0.93660755413401 0.93660755413401 0.9579418612131143 0.9579418612131143 0.9579418612131143 
0.9579418612131143 0.9688998696493584 0.9688998696493584 0.9688998696493584 0.9688998696493584 0.9694651024398118 0.9694651024398118 0.9694651024398118 0.9694651024398118 
0.9596715971192007 0.9596715971192007 0.9596715971192007 0.9596715971192007 0.9395110069793182 0.9395110069793182 0.9395110069793182 0.9395110069793182 0.9091945864316557 
0.9091945864316557 0.9091945864316557 0.9091945864316557 0.8686973483342519 0.8686973483342519 0.8686973483342519 0.8686973483342519 0.8195849300144468 0.8195849300144468 
0.8195849300144468 0.8195849300144468 0.7575305111713 0.7575305111713 0.7575305111713 0.7575305111713 0.7031767744000402 0.7031767744000402 0.7031767744000402 
0.7031767744000402 0.5756276959382224 0.5756276959382224 0.5756276959382224 0.5756276959382224 0.4836594860261066 0.4836594860261066 0.4836594860261066 0.4836594860261066 
0.429553307403209 0.429553307403209 0.429553307403209 0.429553307403209 0.3463971778995478 0.3463971778995478 0.3463971778995478 0.3463971778995478 0.2538529320207867 
0.2538529320207867 0.2538529320207867 0.2538529320207867 0.1572313404268166 0.1572313404268166 0.1572313404268166 0.1572313404268166 0.0585758609701809 0.0585758609701809 
0.0585758609701809 0.0585758609701809 -0.04078847543786206 -0.04078847543786206 -0.04078847543786206 -0.04078847543786206 -0.1397001391948239 -0.1397001391948239 -0.1397001391948239 
-0.1397001391948239 -0.2370624873118756 -0.2370624873118756 -0.2370624873118756 -0.2370624873118756 -0.33182229035141 -0.33182229035141 -0.33182229035141 -0.33182229035141 
-0.4229552678473203 -0.4229552678473203 -0.4229552678473203 -0.4229552678473203 -0.5094658737776268 -0.5094658737776268 -0.5094658737776268 -0.5094658737776268 -0.5904017050569471 
-0.5904017050569471 -0.5904017050569471 -0.5904017050569471 -0.6648716899562483 -0.6648716899562483 -0.6648716899562483 -0.6648716899562483 -0.7320587478086242 -0.7320587478086242 
-0.7320587478086242 -0.7320587478086242 -0.7912270860497258 -0.7912270860497258 -0.7912270860497258 -0.7912270860497258 -0.8417279102883306 -0.8417279102883306 -0.8417279102883306 
-0.8417279102883306 -0.8830053033748948 -0.8830053033748948 -0.8830053033748948 -0.8830053033748948 -0.9146043300421669 -0.9146043300421669 -0.9146043300421669 -0.9146043300421669 
-0.9361770014855703 -0.9361770014855703 -0.9361770014855703 -0.9361770014855703 -0.9474859950573902 -0.9474859950573902 -0.9474859950573902 -0.9474859950573902 -0.948410157649759 
-0.948410157649759 -0.948410157649759 -0.948410157649759 -0.9389525878014482 -0.9389525878014482 -0.9389525878014482 -0.9389525878014482 -0.9192172293366357 -0.9192172293366357 
-0.9192172293366357 -0.9192172293366357 -0.8894190658085659 -0.8894190658085659 -0.8894190658085659 -0.8894190658085659 -0.8499050122445118 -0.8499050122445118 -0.8499050122445118 
-0.8499050122445118 -0.8011467385557056 -0.8011467385557056 -0.8011467385557056 -0.8011467385557056 -0.7437427727042576 -0.7437427727042576 -0.7437427727042576 -0.7437427727042576 
-0.6784061290327288 -0.6784061290327288 -0.6784061290327288 -0.6784061290327288 -0.6059434484745984 -0.6059434484745984 -0.6059434484745984 -0.6059434484745984 -0.5272231755551418 
-0.5272231755551418 -0.5272231755551418 -0.5272231755551418 -0.4431363022462131 -0.4431363022462131 -0.4431363022462131 -0.4431363022462131 -0.3545567466658159 -0.3545567466658159 
-0.3545567466658159 -0.3545567466658159 -0.2623117302795546 -0.2623117302795546 -0.2623117302795546 -0.2623117302795546 -0.1671734028021415 -0.1671734028021415 -0.1671734028021415 
-0.1671734028021415 -0.06987885652177819 -0.06987885652177819 -0.06987885652177819 -0.06987885652177819 0.02882257339595885 0.02882257339595885 0.02882257339595885 0.02882257339595885 
0.1281059752673874 0.1281059752673874 0.1281059752673874 0.1281059752673874 0.2270109137147679 0.2270109137147679 0.2270109137147679 0.2270109137147679 0.3244068602169552 
0.3244068602169552 0.3244068602169552 0.3244068602169552 0.4190009599568815 0.4190009599568815 0.4190009599568815 0.4190009599568815 0.5093933474873462 0.5093933474873462 
0.5093933474873462 0.5093933474873462 0.5941705063586459 0.5941705063586459 0.5941705063586459 0.5941705063586459 0.6720146529495081 0.6720146529495081 0.6720146529495081 
0.6720146529495081 0.7418013481693541 0.7418013481693541 0.7418013481693541 0.7418013481693541 0.8026605997055467 0.8026605997055467 0.8026605997055467 0.8026605997055467 
0.8539884965685334 0.8539884965685334 0.8539884965685334 0.8539884965685334 0.8954127689916977 0.8954127689916977 0.8954127689916977 0.8954127689916977 0.9267312842551664 
0.9267312842551664 0.9267312842551664 0.9267312842551664 0.9478437614793374 0.9478437614793374 0.9478437614793374 0.9478437614793374 0.9586972773470632 0.9586972773470632 
0.9586972773470632 0.9586972773470632 0.9592651503186991 0.9592651503186991 0.9592651503186991 0.9592651503186991 0.9495601599432729 0.9495601599432729 0.9495601599432729 
0.9495601599432729 0.9296131872979851 0.9296131872979851 0.9296131872979851 0.9296131872979851 0.8996182354375449 0.8996182354375449 0.8996182354375449 0.8996182354375449 
0.8595520838025889 0.8595520838025889 0.8595520838025889 0.8595520838025889 0.8109585392768828 0.8109585392768828 0.8109585392768828 0.8109585392768828 0.7495683595077939 
0.7495683595077939 0.7495683595077939 0.7495683595077939 0.6957700899482275 0.6957700899482275 0.6957700899482275 0.6957700899482275 0.5695908311331092 0.5695908311331092 
0.5695908311331092 0.5695908311331092 0.4732902214743729 0.4732902214743729 0.4732902214743729 0.4732902214743729 0.4203534334697558 0.4203534334697558 0.4203534334697558 
0.4203534334697558 0.3389917249373992 0.3389917249373992 0.3389917249373992 0.3389917249373992 0.2484392286355298 0.2484392286355298 0.2484392286355298 0.2484392286355298 
0.1538909187592458 0.1538909187592458 0.1538909187592458 0.1538909187592458 0.05734734157795962 0.05734734157795962 0.05734734157795962 0.05734734157795962 -0.03989204352356522 
-0.03989204352356522 -0.03989204352356522 -0.03989204352356522 -0.1366873740073059 -0.1366873740073059 -0.1366873740073059 -0.1366873740073059 -0.2319635061144875 -0.2319635061144875 
-0.2319635061144875 -0.2319635061144875 -0.324689069649581 -0.324689069649581 -0.324689069649581 -0.324689069649581 -0.413861786661462 -0.413861786661462 -0.413861786661462 
-0.413861786661462 -0.4985080675569494 -0.4985080675569494 -0.4985080675569494 -0.4985080675569494 -0.5776971894047367 -0.5776971894047367 -0.5776971894047367 -0.5776971894047367 
-0.6505590204970551 -0.6505590204970551 -0.6505590204970551 -0.6505590204970551 -0.7162958669424536 -0.7162958669424536 -0.7162958669424536 -0.7162958669424536 -0.7741891232336801 
-0.7741891232336801 -0.7741891232336801 -0.7741891232336801 -0.8236046657027138 -0.8236046657027138 -0.8236046657027138 -0.8236046657027138 -0.8639986313924579 -0.8639986313924579 
-0.8639986313924579 -0.8639986313924579 -0.8949248407087336 -0.8949248407087336 -0.8949248407087336 -0.8949248407087336 -0.9160418209052903 -0.9160418209052903 -0.9160418209052903 
-0.9160418209052903 -0.9271162037267184 -0.9271162037267184 -0.9271162037267184 -0.9271162037267184 -0.9280295735115481 -0.9280295735115481 -0.9280295735115481 -0.9280295735115481 
-0.9187781443378987 -0.9187781443378987 -0.9187781443378987 -0.9187781443378987 -0.8994651100855059 -0.8994651100855059 -0.8994651100855059 -0.8994651100855059 -0.8703083647001099 
-0.8703083647001099 -0.8703083647001099 -0.8703083647001099 -0.8316448281015134 -0.8316448281015134 -0.8316448281015134 -0.8316448281015134 -0.7839367857246378 -0.7839367857246378 
-0.7839367857246378 -0.7839367857246378 -0.7277692661170764 -0.7277692661170764 -0.7277692661170764 -0.7277692661170764 -0.6638393941593893 -0.6638393941593893 -0.6638393941593893 
-0.6638393941593893 -0.5929360539771312 -0.5929360539771312 -0.5929360539771312 -0.5929360539771312 -0.5159087555098066 -0.5159087555098066 -0.5159087555098066 -0.5159087555098066 
-0.433629469871985 -0.433629469871985 -0.433629469871985 -0.433629469871985 -0.3469537749811595 -0.3469537749811595 -0.3469537749811595 -0.3469537749811595 -0.2566917429664626 
-0.2566917429664626 -0.2566917429664626 -0.2566917429664626 -0.1635994999047771 -0.1635994999047771 -0.1635994999047771 -0.1635994999047771 -0.06839859279087873 -0.06839859279087873 
-0.06839859279087873 -0.06839859279087873 0.02817784828510975 0.02817784828510975 0.02817784828510975 0.02817784828510975 0.1253231256219378 0.1253231256219378 0.1253231256219378 
0.1253231256219378 0.2220982012282852 0.2220982012282852 0.2220982012282852 0.2220982012282852 0.3173977002618994 0.3173977002618994 0.3173977002618994 0.3173977002618994 
0.4099573166363589 0.4099573166363589 0.4099573166363589 0.4099573166363589 0.4984077378216337 0.4984077378216337 0.4984077378216337 0.4984077378216337 0.5813658234240016 
0.5813658234240016 0.5813658234240016 0.5813658234240016 0.6575415765229295 0.6575415765229295 0.6575415765229295 0.6575415765229295 0.7258337942790178 0.7258337942790178 
0.7258337942790178 0.7258337942790178 0.7853902311184304 0.7853902311184304 0.7853902311184304 0.7853902311184304 0.8356194094405024 0.8356194094405024 0.8356194094405024 
0.8356194094405024 0.8761571389238464 0.8761571389238464 0.8761571389238464 0.8761571389238464 0.9068056587241329 0.9068056587241329 0.9068056587241329 0.9068056587241329 
0.9274673303710113 0.9274673303710113 0.9274673303710113 0.9274673303710113 0.9380914226091114 0.9380914226091114 0.9380914226091114 0.9380914226091114 0.9386521315299194 
0.9386521315299194 0.9386521315299194 0.9386521315299194 0.9291559593296738 0.9291559593296738 0.9291559593296738 0.9291559593296738 0.9096353997803448 0.9096353997803448 
0.9096353997803448 0.9096353997803448 0.8802860623568211 0.8802860623568211 0.8802860623568211 0.8802860623568211 0.8410830448498806 0.8410830448498806 0.8410830448498806 
0.8410830448498806 0.7935352387233601 0.7935352387233601 0.7935352387233601 0.7935352387233601 0.7334714290624595 0.7334714290624595 0.7334714290624595 0.7334714290624595 
0.6808246061345341 0.6808246061345341 0.6808246061345341 0.6808246061345341 0.5573648624298904 0.5573648624298904 0.5573648624298904 0.5573648624298904 0.4577235335933985 
0.4577235335933985 0.4577235335933985 0.4577235335933985 0.406532508541424 0.406532508541424 0.406532508541424 0.406532508541424 0.3278568107750214 0.3278568107750214 
0.3278568107750214 0.3278568107750214 0.2402937261380783 0.2402937261380783 0.2402937261380783 0.2402937261380783 0.1488632500104176 0.1488632500104176 0.1488632500104176 
0.1488632500104176 0.05549828650485472 0.05549828650485472 0.05549828650485472 0.05549828650485472 -0.03854355617276212 -0.03854355617276212 -0.03854355617276212 -0.03854355617276212 
-0.132158067602715 -0.132158067602715 -0.132158067602715 -0.132158067602715 -0.2243043753660413 -0.2243043753660413 -0.2243043753660413 -0.2243043753660413 -0.3139843419806062 
-0.3139843419806062 -0.3139843419806062 -0.3139843419806062 -0.4002273347119621 -0.4002273347119621 -0.4002273347119621 -0.4002273347119621 -0.4820900296343513 -0.4820900296343513 
-0.4820900296343513 -0.4820900296343513 -0.5586712548465927 -0.5586712548465927 -0.5586712548465927 -0.5586712548465927 -0.6291298574778237 -0.6291298574778237 -0.6291298574778237 
-0.6291298574778237 -0.6926959191494607 -0.6926959191494607 -0.6926959191494607 -0.6926959191494607 -0.7486765094573782 -0.7486765094573782 -0.7486765094573782 -0.7486765094573782 
-0.7964603332751587 -0.7964603332751587 -0.7964603332751587 -0.7964603332751587 -0.8355229609961938 -0.8355229609961938 -0.8355229609961938 -0.8355229609961938 -0.8654332634877089 