Title = RSC/Post/Linear_Advection_2D/Sine_Wave_2D/Quad100/
FileType = Solution
Variables = q
Zone T = RSC/Post/Linear_Advection_2D/Sine_Wave_2D/Quad100/
ZoneType = FETriangle
Nodes = 40000
Elements = 20000
DataPacking = Block
StrandID = 14
SolutionTime = 1.3
-0.5161121443542876 -0.5161121443542876 -0.5161121443542876 -0.5161121443542876 -0.524321339169634 -0.524321339169634 -0.524321339169634 -0.524321339169634 -0.5304612771989122 -0.5304612771989122 
-0.5304612771989122 -0.5304612771989122 -0.5345077269117917 -0.5345077269117917 -0.5345077269117917 -0.5345077269117917 -0.5364447188199035 -0.5364447188199035 -0.5364447188199035 
-0.5364447188199035 -0.5362646085011125 -0.5362646085011125 -0.5362646085011125 -0.5362646085011125 -0.5339681067685627 -0.5339681067685627 -0.5339681067685627 -0.5339681067685627 
-0.5295642768654205 -0.5295642768654205 -0.5295642768654205 -0.5295642768654205 -0.5230704986963954 -0.5230704986963954 -0.5230704986963954 -0.5230704986963954 -0.5145124002371957 
-0.5145124002371957 -0.5145124002371957 -0.5145124002371957 -0.5039237563926162 -0.5039237563926162 -0.5039237563926162 -0.5039237563926162 -0.4913463557024204 -0.4913463557024204 
-0.4913463557024204 -0.4913463557024204 -0.4768298354210647 -0.4768298354210647 -0.4768298354210647 -0.4768298354210647 -0.4604314856221325 -0.4604314856221325 -0.4604314856221325 
-0.4604314856221325 -0.4422160231005867 -0.4422160231005867 -0.4422160231005867 -0.4422160231005867 -0.4222553359651464 -0.4222553359651464 -0.4222553359651464 -0.4222553359651464 
-0.4006281999287654 -0.4006281999287654 -0.4006281999287654 -0.4006281999287654 -0.3774199674168792 -0.3774199674168792 -0.3774199674168792 -0.3774199674168792 -0.3527222307203804 
-0.3527222307203804 -0.3527222307203804 -0.3527222307203804 -0.3266324605226866 -0.3266324605226866 -0.3266324605226866 -0.3266324605226866 -0.2992536212274871 -0.2992536212274871 
-0.2992536212274871 -0.2992536212274871 -0.2706937646052777 -0.2706937646052777 -0.2706937646052777 -0.2706937646052777 -0.2410656033623888 -0.2410656033623888 -0.2410656033623888 
-0.2410656033623888 -0.2104860663154269 -0.2104860663154269 -0.2104860663154269 -0.2104860663154269 -0.1790758369266545 -0.1790758369266545 -0.1790758369266545 -0.1790758369266545 
-0.1469588770215003 -0.1469588770215003 -0.1469588770215003 -0.1469588770215003 -0.1142619375678669 -0.1142619375678669 -0.1142619375678669 -0.1142619375678669 -0.08111405844796696 
-0.08111405844796696 -0.08111405844796696 -0.08111405844796696 -0.04764605919686139 -0.04764605919686139 -0.04764605919686139 -0.04764605919686139 -0.01399002271751974 -0.01399002271751974 
-0.01399002271751974 -0.01399002271751974 0.0197212259900549 0.0197212259900549 0.0197212259900549 0.0197212259900549 0.05335464402841801 0.05335464402841801 0.05335464402841801 
0.05335464402841801 0.08677749566221866 0.08677749566221866 0.08677749566221866 0.08677749566221866 0.1198578761655075 0.1198578761655075 0.1198578761655075 0.1198578761655075 
0.1524652323894259 0.1524652323894259 0.1524652323894259 0.1524652323894259 0.1844708779958426 0.1844708779958426 0.1844708779958426 0.1844708779958426 0.2157485013235372 
0.2157485013235372 0.2157485013235372 0.2157485013235372 0.2461746638826224 0.2461746638826224 0.2461746638826224 0.2461746638826224 0.2756292875098686 0.2756292875098686 
0.2756292875098686 0.2756292875098686 0.303996128262357 0.303996128262357 0.303996128262357 0.303996128262357 0.3311632351792139 0.3311632351792139 0.3311632351792139 
0.3311632351792139 0.3570233921009096 0.3570233921009096 0.3570233921009096 0.3570233921009096 0.3814745408024569 0.3814745408024569 0.3814745408024569 0.3814745408024569 
0.4044201837705953 0.4044201837705953 0.4044201837705953 0.4044201837705953 0.4257697650353978 0.4257697650353978 0.4257697650353978 0.4257697650353978 0.4454390275533089 
0.4454390275533089 0.4454390275533089 0.4454390275533089 0.4633503457312015 0.4633503457312015 0.4633503457312015 0.4633503457312015 0.4794330317791308 0.4794330317791308 
0.4794330317791308 0.4794330317791308 0.4936236146827453 0.4936236146827453 0.4936236146827453 0.4936236146827453 0.5058660906943852 0.5058660906943852 0.5058660906943852 
0.5058660906943852 0.5161121443542878 0.5161121443542878 0.5161121443542878 0.5161121443542878 0.524321339169634 0.524321339169634 0.524321339169634 0.524321339169634 
0.5304612771989126 0.5304612771989126 0.5304612771989126 0.5304612771989126 0.5345077269117922 0.5345077269117922 0.5345077269117922 0.5345077269117922 0.5364447188199033 
0.5364447188199033 0.5364447188199033 0.5364447188199033 0.5362646085011121 0.5362646085011121 0.5362646085011121 0.5362646085011121 0.5339681067685622 0.5339681067685622 
0.5339681067685622 0.5339681067685622 0.5295642768654197 0.5295642768654197 0.5295642768654197 0.5295642768654197 0.5230704986963967 0.5230704986963967 0.5230704986963967 
0.5230704986963967 0.5145124002371961 0.5145124002371961 0.5145124002371961 0.5145124002371961 0.5039237563926164 0.5039237563926164 0.5039237563926164 0.5039237563926164 
0.4913463557024207 0.4913463557024207 0.4913463557024207 0.4913463557024207 0.4768298354210651 0.4768298354210651 0.4768298354210651 0.4768298354210651 0.4604314856221327 
0.4604314856221327 0.4604314856221327 0.4604314856221327 0.4422160231005886 0.4422160231005886 0.4422160231005886 0.4422160231005886 0.4222553359651477 0.4222553359651477 
0.4222553359651477 0.4222553359651477 0.4006281999287655 0.4006281999287655 0.4006281999287655 0.4006281999287655 0.3774199674168794 0.3774199674168794 0.3774199674168794 
0.3774199674168794 0.3527222307203801 0.3527222307203801 0.3527222307203801 0.3527222307203801 0.326632460522687 0.326632460522687 0.326632460522687 0.326632460522687 
0.2992536212274868 0.2992536212274868 0.2992536212274868 0.2992536212274868 0.2706937646052774 0.2706937646052774 0.2706937646052774 0.2706937646052774 0.2410656033623884 
0.2410656033623884 0.2410656033623884 0.2410656033623884 0.2104860663154265 0.2104860663154265 0.2104860663154265 0.2104860663154265 0.1790758369266541 0.1790758369266541 
0.1790758369266541 0.1790758369266541 0.1469588770215001 0.1469588770215001 0.1469588770215001 0.1469588770215001 0.1142619375678668 0.1142619375678668 0.1142619375678668 
0.1142619375678668 0.08111405844796687 0.08111405844796687 0.08111405844796687 0.08111405844796687 0.04764605919686116 0.04764605919686116 0.04764605919686116 0.04764605919686116 
0.0139900227175193 0.0139900227175193 0.0139900227175193 0.0139900227175193 -0.01972122599005521 -0.01972122599005521 -0.01972122599005521 -0.01972122599005521 -0.05335464402841809 
-0.05335464402841809 -0.05335464402841809 -0.05335464402841809 -0.08677749566221898 -0.08677749566221898 -0.08677749566221898 -0.08677749566221898 -0.1198578761655077 -0.1198578761655077 
-0.1198578761655077 -0.1198578761655077 -0.1524652323894263 -0.1524652323894263 -0.1524652323894263 -0.1524652323894263 -0.1844708779958424 -0.1844708779958424 -0.1844708779958424 
-0.1844708779958424 -0.215748501323537 -0.215748501323537 -0.215748501323537 -0.215748501323537 -0.246174663882622 -0.246174663882622 -0.246174663882622 -0.246174663882622 
-0.2756292875098684 -0.2756292875098684 -0.2756292875098684 -0.2756292875098684 -0.3039961282623567 -0.3039961282623567 -0.3039961282623567 -0.3039961282623567 -0.331163235179214 
-0.331163235179214 -0.331163235179214 -0.331163235179214 -0.3570233921009097 -0.3570233921009097 -0.3570233921009097 -0.3570233921009097 -0.381474540802456 -0.381474540802456 
-0.381474540802456 -0.381474540802456 -0.4044201837705951 -0.4044201837705951 -0.4044201837705951 -0.4044201837705951 -0.4257697650353984 -0.4257697650353984 -0.4257697650353984 
-0.4257697650353984 -0.4454390275533092 -0.4454390275533092 -0.4454390275533092 -0.4454390275533092 -0.4633503457312019 -0.4633503457312019 -0.4633503457312019 -0.4633503457312019 
-0.4794330317791309 -0.4794330317791309 -0.4794330317791309 -0.4794330317791309 -0.4936236146827452 -0.4936236146827452 -0.4936236146827452 -0.4936236146827452 -0.505866090694385 
-0.505866090694385 -0.505866090694385 -0.505866090694385 -0.4898157286612948 -0.4898157286612948 -0.4898157286612948 -0.4898157286612948 -0.4976068134673455 -0.4976068134673455 
-0.4976068134673455 -0.4976068134673455 -0.5034340715155691 -0.5034340715155691 -0.5034340715155691 -0.5034340715155691 -0.5072745052806705 -0.5072745052806705 -0.5072745052806705 
-0.5072745052806705 -0.5091129583251062 -0.5091129583251062 -0.5091129583251062 -0.5091129583251062 -0.5089421751146188 -0.5089421751146188 -0.5089421751146188 -0.5089421751146188 
-0.5067628296525168 -0.5067628296525168 -0.5067628296525168 -0.5067628296525168 -0.5025835228196907 -0.5025835228196907 -0.5025835228196907 -0.5025835228196907 -0.4964207484308661 
-0.4964207484308661 -0.4964207484308661 -0.4964207484308661 -0.4882988281410521 -0.4882988281410521 -0.4882988281410521 -0.4882988281410521 -0.4782498154590797 -0.4782498154590797 
-0.4782498154590797 -0.4782498154590797 -0.4663133692470479 -0.4663133692470479 -0.4663133692470479 -0.4663133692470479 -0.4525365972049119 -0.4525365972049119 -0.4525365972049119 
-0.4525365972049119 -0.4369738699579135 -0.4369738699579135 -0.4369738699579135 -0.4369738699579135 -0.419686606480563 -0.419686606480563 -0.419686606480563 -0.419686606480563 
-0.4007430317040059 -0.4007430317040059 -0.4007430317040059 -0.4007430317040059 -0.3802179072633894 -0.3802179072633894 -0.3802179072633894 -0.3802179072633894 -0.358192236447843 
-0.358192236447843 -0.358192236447843 -0.358192236447843 -0.3347529445175038 -0.3347529445175038 -0.3347529445175038 -0.3347529445175038 -0.3099925356492267 -0.3099925356492267 
-0.3099925356492267 -0.3099925356492267 -0.2840087278648606 -0.2840087278648606 -0.2840087278648606 -0.2840087278648606 -0.2569040673828575 -0.2569040673828575 -0.2569040673828575 
-0.2569040673828575 -0.2287855239151984 -0.2287855239151984 -0.2287855239151984 -0.2287855239151984 -0.1997640685068097 -0.1997640685068097 -0.1997640685068097 -0.1997640685068097 
-0.1699542355835464 -0.1699542355835464 -0.1699542355835464 -0.1699542355835464 -0.1394736709371392 -0.1394736709371392 -0.1394736709371392 -0.1394736709371392 -0.1084426674310027 
-0.1084426674310027 -0.1084426674310027 -0.1084426674310027 -0.07698369025925794 -0.07698369025925794 -0.07698369025925794 -0.07698369025925794 -0.04522089363256256 -0.04522089363256256 
-0.04522089363256256 -0.04522089363256256 -0.01327963079816076 -0.01327963079816076 -0.01327963079816076 -0.01327963079816076 0.01871404067211554 0.01871404067211554 0.01871404067211554 
0.01871404067211554 0.05063385637349119 0.05063385637349119 0.05063385637349119 0.05063385637349119 0.08235384337616866 0.08235384337616866 0.08235384337616866 0.08235384337616866 
0.1137488173829331 0.1137488173829331 0.1137488173829331 0.1137488173829331 0.1446948767743782 0.1446948767743782 0.1446948767743782 0.1446948767743782 0.1750698915919962 
0.1750698915919962 0.1750698915919962 0.1750698915919962 0.2047539855293257 0.2047539855293257 0.2047539855293257 0.2047539855293257 0.2336300090289693 0.2336300090289693 
0.2336300090289693 0.2336300090289693 0.2615840016183739 0.2615840016183739 0.2615840016183739 0.2615840016183739 0.2885056416597535 0.2885056416597535 0.2885056416597535 
0.2885056416597535 0.3142886817391919 0.3142886817391919 0.3142886817391919 0.3142886817391919 0.3388313679766466 0.3388313679766466 0.3388313679766466 0.3388313679766466 
0.3620368416020253 0.3620368416020253 0.3620368416020253 0.3620368416020253 0.3838135212125007 0.3838135212125007 0.3838135212125007 0.3838135212125007 0.4040754642024687 
0.4040754642024687 0.4040754642024687 0.4040754642024687 0.4227427059397488 0.4227427059397488 0.4227427059397488 0.4227427059397488 0.439741575349456 0.439741575349456 
0.439741575349456 0.439741575349456 0.4550049856600749 0.4550049856600749 0.4550049856600749 0.4550049856600749 0.4684726991642985 0.4684726991642985 0.4684726991642985 
0.4684726991642985 0.4800915649497386 0.4800915649497386 0.4800915649497386 0.4800915649497386 0.4898157286612948 0.4898157286612948 0.4898157286612948 0.4898157286612948 
0.4976068134673456 0.4976068134673456 0.4976068134673456 0.4976068134673456 0.5034340715155692 0.5034340715155692 0.5034340715155692 0.5034340715155692 0.5072745052806706 
0.5072745052806706 0.5072745052806706 0.5072745052806706 0.5091129583251061 0.5091129583251061 0.5091129583251061 0.5091129583251061 0.5089421751146184 0.5089421751146184 
0.5089421751146184 0.5089421751146184 0.5067628296525164 0.5067628296525164 0.5067628296525164 0.5067628296525164 0.5025835228196902 0.5025835228196902 0.5025835228196902 
0.5025835228196902 0.4964207484308661 0.4964207484308661 0.4964207484308661 0.4964207484308661 0.4882988281410522 0.4882988281410522 0.4882988281410522 0.4882988281410522 
0.47824981545908 0.47824981545908 0.47824981545908 0.47824981545908 0.466313369247048 0.466313369247048 0.466313369247048 0.466313369247048 0.4525365972049121 
0.4525365972049121 0.4525365972049121 0.4525365972049121 0.4369738699579139 0.4369738699579139 0.4369738699579139 0.4369738699579139 0.4196866064805639 0.4196866064805639 
0.4196866064805639 0.4196866064805639 0.4007430317040067 0.4007430317040067 0.4007430317040067 0.4007430317040067 0.3802179072633896 0.3802179072633896 0.3802179072633896 
0.3802179072633896 0.3581922364478432 0.3581922364478432 0.3581922364478432 0.3581922364478432 0.3347529445175036 0.3347529445175036 0.3347529445175036 0.3347529445175036 
0.309992535649227 0.309992535649227 0.309992535649227 0.309992535649227 0.2840087278648602 0.2840087278648602 0.2840087278648602 0.2840087278648602 0.2569040673828575 
0.2569040673828575 0.2569040673828575 0.2569040673828575 0.2287855239151982 0.2287855239151982 0.2287855239151982 0.2287855239151982 0.1997640685068101 0.1997640685068101 
0.1997640685068101 0.1997640685068101 0.1699542355835466 0.1699542355835466 0.1699542355835466 0.1699542355835466 0.1394736709371396 0.1394736709371396 0.1394736709371396 
0.1394736709371396 0.1084426674310027 0.1084426674310027 0.1084426674310027 0.1084426674310027 0.07698369025925768 0.07698369025925768 0.07698369025925768 0.07698369025925768 
0.04522089363256221 0.04522089363256221 0.04522089363256221 0.04522089363256221 0.01327963079816015 0.01327963079816015 0.01327963079816015 0.01327963079816015 -0.01871404067211603 
-0.01871404067211603 -0.01871404067211603 -0.01871404067211603 -0.0506338563734913 -0.0506338563734913 -0.0506338563734913 -0.0506338563734913 -0.08235384337616862 -0.08235384337616862 
-0.08235384337616862 -0.08235384337616862 -0.1137488173829326 -0.1137488173829326 -0.1137488173829326 -0.1137488173829326 -0.1446948767743777 -0.1446948767743777 -0.1446948767743777 
-0.1446948767743777 -0.1750698915919954 -0.1750698915919954 -0.1750698915919954 -0.1750698915919954 -0.2047539855293258 -0.2047539855293258 -0.2047539855293258 -0.2047539855293258 
-0.2336300090289691 -0.2336300090289691 -0.2336300090289691 -0.2336300090289691 -0.2615840016183741 -0.2615840016183741 -0.2615840016183741 -0.2615840016183741 -0.2885056416597532 
-0.2885056416597532 -0.2885056416597532 -0.2885056416597532 -0.3142886817391924 -0.3142886817391924 -0.3142886817391924 -0.3142886817391924 -0.3388313679766466 -0.3388313679766466 
-0.3388313679766466 -0.3388313679766466 -0.3620368416020249 -0.3620368416020249 -0.3620368416020249 -0.3620368416020249 -0.3838135212125005 -0.3838135212125005 -0.3838135212125005 
-0.3838135212125005 -0.4040754642024679 -0.4040754642024679 -0.4040754642024679 -0.4040754642024679 -0.4227427059397484 -0.4227427059397484 -0.4227427059397484 -0.4227427059397484 
-0.4397415753494558 -0.4397415753494558 -0.4397415753494558 -0.4397415753494558 -0.4550049856600749 -0.4550049856600749 -0.4550049856600749 -0.4550049856600749 -0.4684726991642986 
-0.4684726991642986 -0.4684726991642986 -0.4684726991642986 -0.4800915649497386 -0.4800915649497386 -0.4800915649497386 -0.4800915649497386 -0.4615862340627965 -0.4615862340627965 
-0.4615862340627965 -0.4615862340627965 -0.4689284610072301 -0.4689284610072301 -0.4689284610072301 -0.4689284610072301 -0.4744200415491038 -0.4744200415491038 -0.4744200415491038 
-0.4744200415491038 -0.4780393029288832 -0.4780393029288832 -0.4780393029288832 -0.4780393029288832 -0.479771961575386 -0.479771961575386 -0.479771961575386 -0.479771961575386 
-0.4796111794765107 -0.4796111794765107 -0.4796111794765107 -0.4796111794765107 -0.477557591165747 -0.477557591165747 -0.477557591165747 -0.477557591165747 -0.4736193012179624 
-0.4736193012179624 -0.4736193012179624 -0.4736193012179624 -0.467811852264347 -0.467811852264347 -0.467811852264347 -0.467811852264347 -0.4601581636527501 -0.4601581636527501 
-0.4601581636527501 -0.4601581636527501 -0.4506884409954835 -0.4506884409954835 -0.4506884409954835 -0.4506884409954835 -0.4394400569615709 -0.4394400569615709 -0.4394400569615709 
-0.4394400569615709 -0.4264574037838964 -0.4264574037838964 -0.4264574037838964 -0.4264574037838964 -0.4117917180633421 -0.4117917180633421 -0.4117917180633421 -0.4117917180633421 
-0.3955008785613328 -0.3955008785613328 -0.3955008785613328 -0.3955008785613328 -0.3776491777788059 -0.3776491777788059 -0.3776491777788059 -0.3776491777788059 -0.3583070682230841 
-0.3583070682230841 -0.3583070682230841 -0.3583070682230841 -0.3375508843640141 -0.3375508843640141 -0.3375508843640141 -0.3375508843640141 -0.3154625413766898 -0.3154625413766898 
-0.3154625413766898 -0.3154625413766898 -0.2921292118596774 -0.2921292118596774 -0.2921292118596774 -0.2921292118596774 -0.2676429818045971 -0.2676429818045971 -0.2676429818045971 
-0.2676429818045971 -0.2421004871747813 -0.2421004871747813 -0.2421004871747813 -0.2421004871747813 -0.2156025325272784 -0.2156025325272784 -0.2156025325272784 -0.2156025325272784 
-0.1882536931833181 -0.1882536931833181 -0.1882536931833181 -0.1882536931833181 -0.1601619025172946 -0.1601619025172946 -0.1601619025172946 -0.1601619025172946 -0.1314380259930484 
-0.1314380259930484 -0.1314380259930484 -0.1314380259930484 -0.1021954236285301 -0.1021954236285301 -0.1021954236285301 -0.1021954236285301 -0.07254950261559769 -0.07254950261559769 
-0.07254950261559769 -0.07254950261559769 -0.04261726186055673 -0.04261726186055673 -0.04261726186055673 -0.04261726186055673 -0.01251683024292735 -0.01251683024292735 -0.01251683024292735 
-0.01251683024292735 0.01763299958527548 0.01763299958527548 0.01763299958527548 0.01763299958527548 0.0477132400198668 0.0477132400198668 0.0477132400198668 0.0477132400198668 
0.07760517809420532 0.07760517809420532 0.07760517809420532 0.07760517809420532 0.1071908439850391 0.1071908439850391 0.1071908439850391 0.1071908439850391 0.1363534765855026 
0.1363534765855026 0.1363534765855026 0.1363534765855026 0.1649779843078611 0.1649779843078611 0.1649779843078611 0.1649779843078611 0.1929513992974279 0.1929513992974279 
0.1929513992974279 0.1929513992974279 0.2201633232650774 0.2201633232650774 0.2201633232650774 0.2201633232650774 0.2465063631788542 0.2465063631788542 0.2465063631788542 
0.2465063631788542 0.2718765550952088 0.2718765550952088 0.2718765550952088 0.2718765550952088 0.2961737744571859 0.2961737744571859 0.2961737744571859 0.2961737744571859 
0.3193021312403073 0.3193021312403073 0.3193021312403073 0.3193021312403073 0.3411703483866913 0.3411703483866913 0.3411703483866913 0.3411703483866913 0.3616921220338989 
0.3616921220338989 0.3616921220338989 0.3616921220338989 0.3807864621168512 0.3807864621168512 0.3807864621168512 0.3807864621168512 0.3983780119986149 0.3983780119986149 
0.3983780119986149 0.3983780119986149 0.4143973458686215 0.4143973458686215 0.4143973458686215 0.4143973458686215 0.4287812427346235 0.4287812427346235 0.4287812427346235 
0.4287812427346235 0.4414729359270683 0.4414729359270683 0.4414729359270683 0.4414729359270683 0.4524223371312084 0.4524223371312084 0.4524223371312084 0.4524223371312084 
0.4615862340627966 0.4615862340627966 0.4615862340627966 0.4615862340627966 0.46892846100723 0.46892846100723 0.46892846100723 0.46892846100723 0.4744200415491036 
0.4744200415491036 0.4744200415491036 0.4744200415491036 0.4780393029288833 0.4780393029288833 0.4780393029288833 0.4780393029288833 0.479771961575386 0.479771961575386 
0.479771961575386 0.479771961575386 0.4796111794765106 0.4796111794765106 0.4796111794765106 0.4796111794765106 0.4775575911657469 0.4775575911657469 0.4775575911657469 
0.4775575911657469 0.4736193012179618 0.4736193012179618 0.4736193012179618 0.4736193012179618 0.4678118522643469 0.4678118522643469 0.4678118522643469 0.4678118522643469 
0.4601581636527501 0.4601581636527501 0.4601581636527501 0.4601581636527501 0.4506884409954836 0.4506884409954836 0.4506884409954836 0.4506884409954836 0.439440056961571 
0.439440056961571 0.439440056961571 0.439440056961571 0.4264574037838967 0.4264574037838967 0.4264574037838967 0.4264574037838967 0.4117917180633421 0.4117917180633421 
0.4117917180633421 0.4117917180633421 0.3955008785613328 0.3955008785613328 0.3955008785613328 0.3955008785613328 0.3776491777788063 0.3776491777788063 0.3776491777788063 
0.3776491777788063 0.3583070682230844 0.3583070682230844 0.3583070682230844 0.3583070682230844 0.3375508843640146 0.3375508843640146 0.3375508843640146 0.3375508843640146 
0.3154625413766903 0.3154625413766903 0.3154625413766903 0.3154625413766903 0.2921292118596779 0.2921292118596779 0.2921292118596779 0.2921292118596779 0.2676429818045972 
0.2676429818045972 0.2676429818045972 0.2676429818045972 0.2421004871747812 0.2421004871747812 0.2421004871747812 0.2421004871747812 0.2156025325272783 0.2156025325272783 
0.2156025325272783 0.2156025325272783 0.1882536931833181 0.1882536931833181 0.1882536931833181 0.1882536931833181 0.1601619025172945 0.1601619025172945 0.1601619025172945 
0.1601619025172945 0.1314380259930484 0.1314380259930484 0.1314380259930484 0.1314380259930484 0.10219542362853 0.10219542362853 0.10219542362853 0.10219542362853 
0.07254950261559762 0.07254950261559762 0.07254950261559762 0.07254950261559762 0.04261726186055681 0.04261726186055681 0.04261726186055681 0.04261726186055681 0.01251683024292699 
0.01251683024292699 0.01251683024292699 0.01251683024292699 -0.01763299958527586 -0.01763299958527586 -0.01763299958527586 -0.01763299958527586 -0.04771324001986695 -0.04771324001986695 
-0.04771324001986695 -0.04771324001986695 -0.07760517809420496 -0.07760517809420496 -0.07760517809420496 -0.07760517809420496 -0.1071908439850387 -0.1071908439850387 -0.1071908439850387 
-0.1071908439850387 -0.1363534765855026 -0.1363534765855026 -0.1363534765855026 -0.1363534765855026 -0.1649779843078614 -0.1649779843078614 -0.1649779843078614 -0.1649779843078614 
-0.1929513992974282 -0.1929513992974282 -0.1929513992974282 -0.1929513992974282 -0.2201633232650775 -0.2201633232650775 -0.2201633232650775 -0.2201633232650775 -0.2465063631788539 
-0.2465063631788539 -0.2465063631788539 -0.2465063631788539 -0.2718765550952087 -0.2718765550952087 -0.2718765550952087 -0.2718765550952087 -0.2961737744571861 -0.2961737744571861 
-0.2961737744571861 -0.2961737744571861 -0.3193021312403074 -0.3193021312403074 -0.3193021312403074 -0.3193021312403074 -0.3411703483866909 -0.3411703483866909 -0.3411703483866909 
-0.3411703483866909 -0.3616921220338987 -0.3616921220338987 -0.3616921220338987 -0.3616921220338987 -0.380786462116851 -0.380786462116851 -0.380786462116851 -0.380786462116851 
-0.398378011998615 -0.398378011998615 -0.398378011998615 -0.398378011998615 -0.4143973458686216 -0.4143973458686216 -0.4143973458686216 -0.4143973458686216 -0.4287812427346236 
-0.4287812427346236 -0.4287812427346236 -0.4287812427346236 -0.4414729359270684 -0.4414729359270684 -0.4414729359270684 -0.4414729359270684 -0.4524223371312084 -0.4524223371312084 
-0.4524223371312084 -0.4524223371312084 -0.4315350694771434 -0.4315350694771434 -0.4315350694771434 -0.4315350694771434 -0.4383994621445546 -0.4383994621445546 -0.4383994621445546 
-0.4383994621445546 -0.4435336924205441 -0.4435336924205441 -0.4435336924205441 -0.4435336924205441 -0.446917497843819 -0.446917497843819 -0.446917497843819 -0.446917497843819 
-0.4485375240802878 -0.4485375240802878 -0.4485375240802878 -0.4485375240802878 -0.4483873776265142 -0.4483873776265142 -0.4483873776265142 -0.4483873776265142 -0.4464676510419563 
-0.4464676510419563 -0.4464676510419563 -0.4464676510419563 -0.4427859206104033 -0.4427859206104033 -0.4427859206104033 -0.4427859206104033 -0.4373567164398462 -0.4373567164398462 
-0.4373567164398462 -0.4373567164398462 -0.4302014651187785 -0.4302014651187785 -0.4302014651187785 -0.4302014651187785 -0.4213484051552412 -0.4213484051552412 -0.4213484051552412 
-0.4213484051552412 -0.4108324755323319 -0.4108324755323319 -0.4108324755323319 -0.4108324755323319 -0.3986951778200012 -0.3986951778200012 -0.3986951778200012 -0.3986951778200012 
-0.3849844123873156 -0.3849844123873156 -0.3849844123873156 -0.3849844123873156 -0.3697542893615849 -0.3697542893615849 -0.3697542893615849 -0.3697542893615849 -0.3530649150804107 
-0.3530649150804107 -0.3530649150804107 -0.3530649150804107 -0.3349821548794308 -0.3349821548794308 -0.3349821548794308 -0.3349821548794308 -0.3155773731519309 -0.3155773731519309 
-0.3155773731519309 -0.3155773731519309 -0.2949271517061882 -0.2949271517061882 -0.2949271517061882 -0.2949271517061882 -0.2731129875320598 -0.2731129875320598 -0.2731129875320598 
-0.2731129875320598 -0.2502209711695982 -0.2502209711695982 -0.2502209711695982 -0.2502209711695982 -0.226341446949018 -0.226341446949018 -0.226341446949018 -0.226341446949018 
-0.2015686564429009 -0.2015686564429009 -0.2015686564429009 -0.2015686564429009 -0.1760003665377634 -0.1760003665377634 -0.1760003665377634 -0.1760003665377634 -0.1497374835928202 
-0.1497374835928202 -0.1497374835928202 -0.1497374835928202 -0.1228836552086853 -0.1228836552086853 -0.1228836552086853 -0.1228836552086853 -0.09554486117764388 -0.09554486117764388 
-0.09554486117764388 -0.09554486117764388 -0.06782899522982908 -0.06782899522982908 -0.06782899522982908 -0.06782899522982908 -0.03984543922596248 -0.03984543922596248 -0.03984543922596248 
-0.03984543922596248 -0.01170463147712118 -0.01170463147712118 -0.01170463147712118 -0.01170463147712118 0.01648236910482345 0.01648236910482345 0.01648236910482345 0.01648236910482345 
0.04460432130598982 0.04460432130598982 0.04460432130598982 0.04460432130598982 0.07255024062873716 0.07255024062873716 0.07255024062873716 0.07255024062873716 0.100209837296775 
0.100209837296775 0.100209837296775 0.100209837296775 0.1274739515185221 0.1274739515185221 0.1274739515185221 0.1274739515185221 0.1542349842909346 0.1542349842909346 
0.1542349842909346 0.1542349842909346 0.1803873220436127 0.1803873220436127 0.1803873220436127 0.1803873220436127 0.2058277534473127 0.2058277534473127 0.2058277534473127 
0.2058277534473127 0.2304558767419125 0.2304558767419125 0.2304558767419125 0.2304558767419125 0.2541744959762868 0.2541744959762868 0.2541744959762868 0.2541744959762868 
0.2768900045963243 0.2768900045963243 0.2768900045963243 0.2768900045963243 0.2985127548672303 0.2985127548672303 0.2985127548672303 0.2985127548672303 0.3189574116721809 
0.3189574116721809 0.3189574116721809 0.3189574116721809 0.3381432892910419 0.3381432892910419 0.3381432892910419 0.3381432892910419 0.3559946698300454 0.3559946698300454 
0.3559946698300454 0.3559946698300454 0.3724411020457243 0.3724411020457243 0.3724411020457243 0.3724411020457243 0.3874176793837825 0.3874176793837825 0.3874176793837825 
0.3874176793837825 0.4008652961356148 0.4008652961356148 0.4008652961356148 0.4008652961356148 0.4127308807015333 0.4127308807015333 0.4127308807015333 0.4127308807015333 
0.4229676050401259 0.4229676050401259 0.4229676050401259 0.4229676050401259 0.4315350694771434 0.4315350694771434 0.4315350694771434 0.4315350694771434 0.4383994621445547 
0.4383994621445547 0.4383994621445547 0.4383994621445547 0.443533692420544 0.443533692420544 0.443533692420544 0.443533692420544 0.4469174978438191 0.4469174978438191 
0.4469174978438191 0.4469174978438191 0.4485375240802877 0.4485375240802877 0.4485375240802877 0.4485375240802877 0.4483873776265142 0.4483873776265142 0.4483873776265142 
0.4483873776265142 0.4464676510419563 0.4464676510419563 0.4464676510419563 0.4464676510419563 0.4427859206104033 0.4427859206104033 0.4427859206104033 0.4427859206104033 
0.4373567164398459 0.4373567164398459 0.4373567164398459 0.4373567164398459 0.4302014651187783 0.4302014651187783 0.4302014651187783 0.4302014651187783 0.4213484051552412 
0.4213484051552412 0.4213484051552412 0.4213484051552412 0.4108324755323321 0.4108324755323321 0.4108324755323321 0.4108324755323321 0.3986951778200015 0.3986951778200015 
0.3986951778200015 0.3986951778200015 0.3849844123873154 0.3849844123873154 0.3849844123873154 0.3849844123873154 0.3697542893615853 0.3697542893615853 0.3697542893615853 
0.3697542893615853 0.3530649150804111 0.3530649150804111 0.3530649150804111 0.3530649150804111 0.3349821548794312 0.3349821548794312 0.3349821548794312 0.3349821548794312 
0.3155773731519312 0.3155773731519312 0.3155773731519312 0.3155773731519312 0.2949271517061885 0.2949271517061885 0.2949271517061885 0.2949271517061885 0.2731129875320601 
0.2731129875320601 0.2731129875320601 0.2731129875320601 0.2502209711695983 0.2502209711695983 0.2502209711695983 0.2502209711695983 0.2263414469490179 0.2263414469490179 
0.2263414469490179 0.2263414469490179 0.201568656442901 0.201568656442901 0.201568656442901 0.201568656442901 0.1760003665377632 0.1760003665377632 0.1760003665377632 
0.1760003665377632 0.1497374835928201 0.1497374835928201 0.1497374835928201 0.1497374835928201 0.1228836552086855 0.1228836552086855 0.1228836552086855 0.1228836552086855 
0.09554486117764369 0.09554486117764369 0.09554486117764369 0.09554486117764369 0.06782899522982913 0.06782899522982913 0.06782899522982913 0.06782899522982913 0.03984543922596244 