Title = RSC/Post/Linear_Advection_2D/Sine_Wave_2D/Quad100/
FileType = Solution
Variables = q
Zone T = RSC/Post/Linear_Advection_2D/Sine_Wave_2D/Quad100/
ZoneType = FETriangle
Nodes = 40000
Elements = 20000
DataPacking = Block
StrandID = 2
SolutionTime = 0.1
0.1520437152669467 0.1520437152669467 0.1520437152669467 0.1520437152669467 0.1376836972295817 0.1376836972295817 0.1376836972295817 0.1376836972295817 0.1227803045409495 0.1227803045409495 
0.1227803045409495 0.1227803045409495 0.1073923540832797 0.1073923540832797 0.1073923540832797 0.1073923540832797 0.09158057506694303 0.09158057506694303 0.09158057506694303 
0.09158057506694303 0.07540736936000188 0.07540736936000188 0.07540736936000188 0.07540736936000188 0.05893656521654685 0.05893656521654685 0.05893656521654685 0.05893656521654685 
0.04223316537573755 0.04223316537573755 0.04223316537573755 0.04223316537573755 0.02536309052568818 0.02536309052568818 0.02536309052568818 0.02536309052568818 0.008392919144627781 
0.008392919144627781 0.008392919144627781 0.008392919144627781 -0.008610375253936426 -0.008610375253936426 -0.008610375253936426 -0.008610375253936426 -0.02557968843507959 -0.02557968843507959 
-0.02557968843507959 -0.02557968843507959 -0.04244805027221758 -0.04244805027221758 -0.04244805027221758 -0.04244805027221758 -0.05914888904760061 -0.05914888904760061 -0.05914888904760061 
-0.05914888904760061 -0.07561629418046971 -0.07561629418046971 -0.07561629418046971 -0.07561629418046971 -0.09178527634600728 -0.09178527634600728 -0.09178527634600728 -0.09178527634600728 
-0.1075920239585113 -0.1075920239585113 -0.1075920239585113 -0.1075920239585113 -0.1229741550065712 -0.1229741550065712 -0.1229741550065712 -0.1229741550065712 -0.1378709632463675 
-0.1378709632463675 -0.1378709632463675 -0.1378709632463675 -0.1522236577814819 -0.1522236577814819 -0.1522236577814819 -0.1522236577814819 -0.1659755950837067 -0.1659755950837067 
-0.1659755950837067 -0.1659755950837067 -0.179072502539173 -0.179072502539173 -0.179072502539173 -0.179072502539173 -0.1914626926375616 -0.1914626926375616 -0.1914626926375616 
-0.1914626926375616 -0.2030972669590937 -0.2030972669590937 -0.2030972669590937 -0.2030972669590937 -0.2139303091542537 -0.2139303091542537 -0.2139303091542537 -0.2139303091542537 
-0.2239190661546431 -0.2239190661546431 -0.2239190661546431 -0.2239190661546431 -0.2330241168998108 -0.2330241168998108 -0.2330241168998108 -0.2330241168998108 -0.2412095279141675 
-0.2412095279141675 -0.2412095279141675 -0.2412095279141675 -0.248442995119998 -0.248442995119998 -0.248442995119998 -0.248442995119998 -0.254695971326898 -0.254695971326898 
-0.254695971326898 -0.254695971326898 -0.2599437788944916 -0.2599437788944916 -0.2599437788944916 -0.2599437788944916 -0.2641657071238044 -0.2641657071238044 -0.2641657071238044 
-0.2641657071238044 -0.2673450939929317 -0.2673450939929317 -0.2673450939929317 -0.2673450939929317 -0.2694693919144242 -0.2694693919144242 -0.2694693919144242 -0.2694693919144242 
-0.2705302172548854 -0.2705302172548854 -0.2705302172548854 -0.2705302172548854 -0.2705233834213416 -0.2705233834213416 -0.2705233834213416 -0.2705233834213416 -0.2694489173838115 
-0.2694489173838115 -0.2694489173838115 -0.2694489173838115 -0.2673110595688685 -0.2673110595688685 -0.2673110595688685 -0.2673110595688685 -0.2641182471246137 -0.2641182471246137 
-0.2641182471246137 -0.2641182471246137 -0.2598830806231074 -0.2598830806231074 -0.2598830806231074 -0.2598830806231074 -0.2546222743316676 -0.2546222743316676 -0.2546222743316676 
-0.2546222743316676 -0.2483565902492926 -0.2483565902492926 -0.2483565902492926 -0.2483565902492926 -0.2411107561685381 -0.2411107561685381 -0.2411107561685381 -0.2411107561685381 
-0.2329133680862114 -0.2329133680862114 -0.2329133680862114 -0.2329133680862114 -0.2237967773480445 -0.2237967773480445 -0.2237967773480445 -0.2237967773480445 -0.2137969629727072 
-0.2137969629727072 -0.2137969629727072 -0.2137969629727072 -0.2029533896590583 -0.2029533896590583 -0.2029533896590583 -0.2029533896590583 -0.1913088520370093 -0.1913088520370093 
-0.1913088520370093 -0.1913088520370093 -0.178909305776671 -0.178909305776671 -0.178909305776671 -0.178909305776671 -0.1658036862223191 -0.1658036862223191 -0.1658036862223191 
-0.1658036862223191 -0.1520437152669466 -0.1520437152669466 -0.1520437152669466 -0.1520437152669466 -0.1376836972295814 -0.1376836972295814 -0.1376836972295814 -0.1376836972295814 
-0.1227803045409494 -0.1227803045409494 -0.1227803045409494 -0.1227803045409494 -0.1073923540832795 -0.1073923540832795 -0.1073923540832795 -0.1073923540832795 -0.09158057506694264 
-0.09158057506694264 -0.09158057506694264 -0.09158057506694264 -0.07540736936000156 -0.07540736936000156 -0.07540736936000156 -0.07540736936000156 -0.05893656521654659 -0.05893656521654659 
-0.05893656521654659 -0.05893656521654659 -0.0422331653757374 -0.0422331653757374 -0.0422331653757374 -0.0422331653757374 -0.02536309052568829 -0.02536309052568829 -0.02536309052568829 
-0.02536309052568829 -0.008392919144627867 -0.008392919144627867 -0.008392919144627867 -0.008392919144627867 0.008610375253936348 0.008610375253936348 0.008610375253936348 0.008610375253936348 
0.02557968843507954 0.02557968843507954 0.02557968843507954 0.02557968843507954 0.04244805027221751 0.04244805027221751 0.04244805027221751 0.04244805027221751 0.05914888904760054 
0.05914888904760054 0.05914888904760054 0.05914888904760054 0.07561629418046986 0.07561629418046986 0.07561629418046986 0.07561629418046986 0.09178527634600742 0.09178527634600742 
0.09178527634600742 0.09178527634600742 0.1075920239585113 0.1075920239585113 0.1075920239585113 0.1075920239585113 0.1229741550065711 0.1229741550065711 0.1229741550065711 
0.1229741550065711 0.1378709632463673 0.1378709632463673 0.1378709632463673 0.1378709632463673 0.1522236577814818 0.1522236577814818 0.1522236577814818 0.1522236577814818 
0.1659755950837065 0.1659755950837065 0.1659755950837065 0.1659755950837065 0.1790725025391729 0.1790725025391729 0.1790725025391729 0.1790725025391729 0.1914626926375614 
0.1914626926375614 0.1914626926375614 0.1914626926375614 0.2030972669590937 0.2030972669590937 0.2030972669590937 0.2030972669590937 0.2139303091542535 0.2139303091542535 
0.2139303091542535 0.2139303091542535 0.2239190661546432 0.2239190661546432 0.2239190661546432 0.2239190661546432 0.2330241168998108 0.2330241168998108 0.2330241168998108 
0.2330241168998108 0.2412095279141674 0.2412095279141674 0.2412095279141674 0.2412095279141674 0.248442995119998 0.248442995119998 0.248442995119998 0.248442995119998 
0.2546959713268977 0.2546959713268977 0.2546959713268977 0.2546959713268977 0.2599437788944912 0.2599437788944912 0.2599437788944912 0.2599437788944912 0.2641657071238044 
0.2641657071238044 0.2641657071238044 0.2641657071238044 0.267345093992932 0.267345093992932 0.267345093992932 0.267345093992932 0.2694693919144244 0.2694693919144244 
0.2694693919144244 0.2694693919144244 0.2705302172548856 0.2705302172548856 0.2705302172548856 0.2705302172548856 0.2705233834213419 0.2705233834213419 0.2705233834213419 
0.2705233834213419 0.2694489173838114 0.2694489173838114 0.2694489173838114 0.2694489173838114 0.2673110595688686 0.2673110595688686 0.2673110595688686 0.2673110595688686 
0.2641182471246135 0.2641182471246135 0.2641182471246135 0.2641182471246135 0.2598830806231075 0.2598830806231075 0.2598830806231075 0.2598830806231075 0.2546222743316671 
0.2546222743316671 0.2546222743316671 0.2546222743316671 0.2483565902492925 0.2483565902492925 0.2483565902492925 0.2483565902492925 0.2411107561685373 0.2411107561685373 
0.2411107561685373 0.2411107561685373 0.2329133680862109 0.2329133680862109 0.2329133680862109 0.2329133680862109 0.2237967773480447 0.2237967773480447 0.2237967773480447 
0.2237967773480447 0.2137969629727074 0.2137969629727074 0.2137969629727074 0.2137969629727074 0.2029533896590585 0.2029533896590585 0.2029533896590585 0.2029533896590585 
0.1913088520370094 0.1913088520370094 0.1913088520370094 0.1913088520370094 0.1789093057766711 0.1789093057766711 0.1789093057766711 0.1789093057766711 0.1658036862223191 
0.1658036862223191 0.1658036862223191 0.1658036862223191 0.1188582493872822 0.1188582493872822 0.1188582493872822 0.1188582493872822 0.1076325702285491 0.1076325702285491 
0.1076325702285491 0.1076325702285491 0.09598211448776785 0.09598211448776785 0.09598211448776785 0.09598211448776785 0.08395286119116041 0.08395286119116041 0.08395286119116041 
0.08395286119116041 0.07159228430584558 0.07159228430584558 0.07159228430584558 0.07159228430584558 0.05894916538177894 0.05894916538177894 0.05894916538177894 0.05894916538177894 
0.0460734010332623 0.0460734010332623 0.0460734010332623 0.0460734010332623 0.03301580601980211 0.03301580601980211 0.03301580601980211 0.03301580601980211 0.01982791270346877 
0.01982791270346877 0.01982791270346877 0.01982791270346877 0.006561767674206492 0.006561767674206492 0.006561767674206492 0.006561767674206492 -0.00673027365427938 -0.00673027365427938 
-0.00673027365427938 -0.00673027365427938 -0.01999575366742134 -0.01999575366742134 -0.01999575366742134 -0.01999575366742134 -0.03318231957602894 -0.03318231957602894 -0.03318231957602894 
-0.03318231957602894 -0.04623793002882963 -0.04623793002882963 -0.04623793002882963 -0.04623793002882963 -0.05911106049590749 -0.05911106049590749 -0.05911106049590749 -0.05911106049590749 
-0.07175090661248279 -0.07175090661248279 -0.07175090661248279 -0.07175090661248279 -0.08410758468052972 -0.08410758468052972 -0.08410758468052972 -0.08410758468052972 -0.09613232853694316 
-0.09613232853694316 -0.09613232853694316 -0.09613232853694316 -0.1077776820113045 -0.1077776820113045 -0.1077776820113045 -0.1077776820113045 -0.1189976862137064 -0.1189976862137064 
-0.1189976862137064 -0.1189976862137064 -0.1297480609134943 -0.1297480609134943 -0.1297480609134943 -0.1297480609134943 -0.1399863792931072 -0.1399863792931072 -0.1399863792931072 
-0.1399863792931072 -0.1496722353873435 -0.1496722353873435 -0.1496722353873435 -0.1496722353873435 -0.1587674035472462 -0.1587674035472462 -0.1587674035472462 -0.1587674035472462 
-0.167235989299275 -0.167235989299275 -0.167235989299275 -0.167235989299275 -0.1750445710043956 -0.1750445710043956 -0.1750445710043956 -0.1750445710043956 -0.1821623317580194 
-0.1821623317580194 -0.1821623317580194 -0.1821623317580194 -0.1885611810102472 -0.1885611810102472 -0.1885611810102472 -0.1885611810102472 -0.1942158654264372 -0.1942158654264372 
-0.1942158654264372 -0.1942158654264372 -0.199104068550578 -0.199104068550578 -0.199104068550578 -0.199104068550578 -0.2032064988781462 -0.2032064988781462 -0.2032064988781462 
-0.2032064988781462 -0.2065069659908607 -0.2065069659908607 -0.2065069659908607 -0.2065069659908607 -0.2089924444528677 -0.2089924444528677 -0.2089924444528677 -0.2089924444528677 
-0.2106531252161855 -0.2106531252161855 -0.2106531252161855 -0.2106531252161855 -0.2114824543325333 -0.2114824543325333 -0.2114824543325333 -0.2114824543325333 -0.2114771588187736 
-0.2114771588187736 -0.2114771588187736 -0.2114771588187736 -0.2106372595738801 -0.2106372595738801 -0.2106372595738801 -0.2106372595738801 -0.2089660712964585 -0.2089660712964585 
-0.2089660712964585 -0.2089660712964585 -0.2064701894031468 -0.2064701894031468 -0.2064701894031468 -0.2064701894031468 -0.203159463999518 -0.203159463999518 -0.203159463999518 
-0.203159463999518 -0.1990469610062135 -0.1990469610062135 -0.1990469610062135 -0.1990469610062135 -0.1941489105937239 -0.1941489105937239 -0.1941489105937239 -0.1941489105937239 
-0.1884846431293213 -0.1884846431293213 -0.1884846431293213 -0.1884846431293213 -0.1820765128889296 -0.1820765128889296 -0.1820765128889296 -0.1820765128889296 -0.1749498098350114 
-0.1749498098350114 -0.1749498098350114 -0.1749498098350114 -0.1671326598086397 -0.1671326598086397 -0.1671326598086397 -0.1671326598086397 -0.1586559135296527 -0.1586559135296527 
-0.1586559135296527 -0.1586559135296527 -0.1495530248429561 -0.1495530248429561 -0.1495530248429561 -0.1495530248429561 -0.1398599186914825 -0.1398599186914825 -0.1398599186914825 
-0.1398599186914825 -0.1296148493368526 -0.1296148493368526 -0.1296148493368526 -0.1296148493368526 -0.1188582493872821 -0.1188582493872821 -0.1188582493872821 -0.1188582493872821 
-0.107632570228549 -0.107632570228549 -0.107632570228549 -0.107632570228549 -0.09598211448776803 -0.09598211448776803 -0.09598211448776803 -0.09598211448776803 -0.08395286119116052 
-0.08395286119116052 -0.08395286119116052 -0.08395286119116052 -0.0715922843058456 -0.0715922843058456 -0.0715922843058456 -0.0715922843058456 -0.05894916538177887 -0.05894916538177887 
-0.05894916538177887 -0.05894916538177887 -0.0460734010332622 -0.0460734010332622 -0.0460734010332622 -0.0460734010332622 -0.03301580601980202 -0.03301580601980202 -0.03301580601980202 
-0.03301580601980202 -0.01982791270346884 -0.01982791270346884 -0.01982791270346884 -0.01982791270346884 -0.00656176767420657 -0.00656176767420657 -0.00656176767420657 -0.00656176767420657 
0.006730273654279294 0.006730273654279294 0.006730273654279294 0.006730273654279294 0.01999575366742127 0.01999575366742127 0.01999575366742127 0.01999575366742127 0.03318231957602881 
0.03318231957602881 0.03318231957602881 0.03318231957602881 0.04623793002882956 0.04623793002882956 0.04623793002882956 0.04623793002882956 0.05911106049590739 0.05911106049590739 
0.05911106049590739 0.05911106049590739 0.07175090661248264 0.07175090661248264 0.07175090661248264 0.07175090661248264 0.08410758468053001 0.08410758468053001 0.08410758468053001 
0.08410758468053001 0.09613232853694316 0.09613232853694316 0.09613232853694316 0.09613232853694316 0.1077776820113047 0.1077776820113047 0.1077776820113047 0.1077776820113047 
0.1189976862137063 0.1189976862137063 0.1189976862137063 0.1189976862137063 0.1297480609134946 0.1297480609134946 0.1297480609134946 0.1297480609134946 0.1399863792931071 
0.1399863792931071 0.1399863792931071 0.1399863792931071 0.1496722353873437 0.1496722353873437 0.1496722353873437 0.1496722353873437 0.158767403547246 0.158767403547246 
0.158767403547246 0.158767403547246 0.1672359892992749 0.1672359892992749 0.1672359892992749 0.1672359892992749 0.1750445710043952 0.1750445710043952 0.1750445710043952 
0.1750445710043952 0.182162331758019 0.182162331758019 0.182162331758019 0.182162331758019 0.1885611810102471 0.1885611810102471 0.1885611810102471 0.1885611810102471 
0.1942158654264373 0.1942158654264373 0.1942158654264373 0.1942158654264373 0.1991040685505779 0.1991040685505779 0.1991040685505779 0.1991040685505779 0.203206498878146 
0.203206498878146 0.203206498878146 0.203206498878146 0.2065069659908606 0.2065069659908606 0.2065069659908606 0.2065069659908606 0.2089924444528681 0.2089924444528681 
0.2089924444528681 0.2089924444528681 0.2106531252161857 0.2106531252161857 0.2106531252161857 0.2106531252161857 0.2114824543325333 0.2114824543325333 0.2114824543325333 
0.2114824543325333 0.2114771588187732 0.2114771588187732 0.2114771588187732 0.2114771588187732 0.2106372595738799 0.2106372595738799 0.2106372595738799 0.2106372595738799 
0.2089660712964581 0.2089660712964581 0.2089660712964581 0.2089660712964581 0.2064701894031468 0.2064701894031468 0.2064701894031468 0.2064701894031468 0.2031594639995178 
0.2031594639995178 0.2031594639995178 0.2031594639995178 0.1990469610062136 0.1990469610062136 0.1990469610062136 0.1990469610062136 0.1941489105937238 0.1941489105937238 
0.1941489105937238 0.1941489105937238 0.1884846431293212 0.1884846431293212 0.1884846431293212 0.1884846431293212 0.1820765128889297 0.1820765128889297 0.1820765128889297 
0.1820765128889297 0.1749498098350115 0.1749498098350115 0.1749498098350115 0.1749498098350115 0.1671326598086396 0.1671326598086396 0.1671326598086396 0.1671326598086396 
0.1586559135296526 0.1586559135296526 0.1586559135296526 0.1586559135296526 0.149553024842956 0.149553024842956 0.149553024842956 0.149553024842956 0.1398599186914825 
0.1398599186914825 0.1398599186914825 0.1398599186914825 0.1296148493368526 0.1296148493368526 0.1296148493368526 0.1296148493368526 0.08520370429845509 0.08520370429845509 
0.08520370429845509 0.08520370429845509 0.07715666664546839 0.07715666664546839 0.07715666664546839 0.07715666664546839 0.06880512687876 0.06880512687876 0.06880512687876 
0.06880512687876 0.06018204471033359 0.06018204471033359 0.06018204471033359 0.06018204471033359 0.0513214515059965 0.0513214515059965 0.0513214515059965 0.0513214515059965 
0.04225831597910604 0.04225831597910604 0.04225831597910604 0.04225831597910604 0.03302840618503421 0.03302840618503421 0.03302840618503421 0.03302840618503421 0.02366814836099353 
0.02366814836099353 0.02366814836099353 0.02366814836099353 0.01421448316832042 0.01421448316832042 0.01421448316832042 0.01421448316832042 0.004704719904561611 0.004704719904561611 
0.004704719904561611 0.004704719904561611 -0.004823610739278438 -0.004823610739278438 -0.004823610739278438 -0.004823610739278438 -0.01433290479522865 -0.01433290479522865 -0.01433290479522865 
-0.01433290479522865 -0.02378563342403347 -0.02378563342403347 -0.02378563342403347 -0.02378563342403347 -0.03314449102433584 -0.03314449102433584 -0.03314449102433584 -0.03314449102433584 
-0.04237254246084275 -0.04237254246084275 -0.04237254246084275 -0.04237254246084275 -0.05143336883043002 -0.05143336883043002 -0.05143336883043002 -0.05143336883043002 -0.06029121119091469 
-0.06029121119091469 -0.06029121119091469 -0.06029121119091469 -0.06891111168526298 -0.06891111168526298 -0.06891111168526298 -0.06891111168526298 -0.07725905150428204 -0.07725905150428204 
-0.07725905150428204 -0.07725905150428204 -0.0853020851433169 -0.0853020851433169 -0.0853020851433169 -0.0853020851433169 -0.09300847042310667 -0.09300847042310667 -0.09300847042310667 
-0.09300847042310667 -0.1003477937616647 -0.1003477937616647 -0.1003477937616647 -0.1003477937616647 -0.1072910902027917 -0.1072910902027917 -0.1072910902027917 -0.1072910902027917 
-0.1138109577275248 -0.1138109577275248 -0.1138109577275248 -0.1138109577275248 -0.1198816653973881 -0.1198816653973881 -0.1198816653973881 -0.1198816653973881 -0.1254792549026511 
-0.1254792549026511 -0.1254792549026511 -0.1254792549026511 -0.130581635114832 -0.130581635114832 -0.130581635114832 -0.130581635114832 -0.1351686692702892 -0.1351686692702892 
-0.1351686692702892 -0.1351686692702892 -0.1392222544408273 -0.1392222544408273 -0.1392222544408273 -0.1392222544408273 -0.1427263929776857 -0.1427263929776857 -0.1427263929776857 
-0.1427263929776857 -0.1456672556469475 -0.1456672556469475 -0.1456672556469475 -0.1456672556469475 -0.1480332362072096 -0.1480332362072096 -0.1480332362072096 -0.1480332362072096 
-0.1498149972141145 -0.1498149972141145 -0.1498149972141145 -0.1498149972141145 -0.1510055068709768 -0.1510055068709768 -0.1510055068709768 -0.1510055068709768 -0.1516000667800734 
-0.1516000667800734 -0.1516000667800734 -0.1516000667800734 -0.1515963304850715 -0.1515963304850715 -0.1515963304850715 -0.1515963304850715 -0.1509943127314204 -0.1509943127314204 
-0.1509943127314204 -0.1509943127314204 -0.1497963894081585 -0.1497963894081585 -0.1497963894081585 -0.1497963894081585 -0.1480072881713628 -0.1480072881713628 -0.1480072881713628 
-0.1480072881713628 -0.1456340697862528 -0.1456340697862528 -0.1456340697862528 -0.1456340697862528 -0.1426861002615742 -0.1426861002615742 -0.1426861002615742 -0.1426861002615742 
-0.1391750138862419 -0.1391750138862419 -0.1391750138862419 -0.1391750138862419 -0.1351146673141164 -0.1351146673141164 -0.1351146673141164 -0.1351146673141164 -0.1305210848781217 
-0.1305210848781217 -0.1305210848781217 -0.1305210848781217 -0.1254123953495248 -0.1254123953495248 -0.1254123953495248 -0.1254123953495248 -0.1198087603919564 -0.1198087603919564 
-0.1198087603919564 -0.1198087603919564 -0.1137322949925372 -0.1137322949925372 -0.1137322949925372 -0.1137322949925372 -0.1072069801841257 -0.1072069801841257 -0.1072069801841257 
-0.1072069801841257 -0.1002585684031377 -0.1002585684031377 -0.1002585684031377 -0.1002585684031377 -0.0929144818564456 -0.0929144818564456 -0.0929144818564456 -0.0929144818564456 
-0.08520370429845509 -0.08520370429845509 -0.08520370429845509 -0.08520370429845509 -0.07715666664546826 -0.07715666664546826 -0.07715666664546826 -0.07715666664546826 -0.06880512687876 
-0.06880512687876 -0.06880512687876 -0.06880512687876 -0.06018204471033357 -0.06018204471033357 -0.06018204471033357 -0.06018204471033357 -0.05132145150599643 -0.05132145150599643 
-0.05132145150599643 -0.05132145150599643 -0.04225831597910591 -0.04225831597910591 -0.04225831597910591 -0.04225831597910591 -0.03302840618503421 -0.03302840618503421 -0.03302840618503421 
-0.03302840618503421 -0.02366814836099338 -0.02366814836099338 -0.02366814836099338 -0.02366814836099338 -0.01421448316832046 -0.01421448316832046 -0.01421448316832046 -0.01421448316832046 
-0.004704719904561662 -0.004704719904561662 -0.004704719904561662 -0.004704719904561662 0.004823610739278368 0.004823610739278368 0.004823610739278368 0.004823610739278368 0.01433290479522862 
0.01433290479522862 0.01433290479522862 0.01433290479522862 0.02378563342403335 0.02378563342403335 0.02378563342403335 0.02378563342403335 0.03314449102433569 0.03314449102433569 
0.03314449102433569 0.03314449102433569 0.04237254246084283 0.04237254246084283 0.04237254246084283 0.04237254246084283 0.05143336883043026 0.05143336883043026 0.05143336883043026 
0.05143336883043026 0.06029121119091483 0.06029121119091483 0.06029121119091483 0.06029121119091483 0.06891111168526309 0.06891111168526309 0.06891111168526309 0.06891111168526309 
0.07725905150428214 0.07725905150428214 0.07725905150428214 0.07725905150428214 0.08530208514331677 0.08530208514331677 0.08530208514331677 0.08530208514331677 0.09300847042310674 
0.09300847042310674 0.09300847042310674 0.09300847042310674 0.1003477937616647 0.1003477937616647 0.1003477937616647 0.1003477937616647 0.1072910902027917 0.1072910902027917 
0.1072910902027917 0.1072910902027917 0.1138109577275247 0.1138109577275247 0.1138109577275247 0.1138109577275247 0.119881665397388 0.119881665397388 0.119881665397388 
0.119881665397388 0.1254792549026514 0.1254792549026514 0.1254792549026514 0.1254792549026514 0.130581635114832 0.130581635114832 0.130581635114832 0.130581635114832 
0.1351686692702892 0.1351686692702892 0.1351686692702892 0.1351686692702892 0.1392222544408273 0.1392222544408273 0.1392222544408273 0.1392222544408273 0.1427263929776855 
0.1427263929776855 0.1427263929776855 0.1427263929776855 0.1456672556469473 0.1456672556469473 0.1456672556469473 0.1456672556469473 0.1480332362072094 0.1480332362072094 
0.1480332362072094 0.1480332362072094 0.1498149972141143 0.1498149972141143 0.1498149972141143 0.1498149972141143 0.151005506870977 0.151005506870977 0.151005506870977 
0.151005506870977 0.1516000667800731 0.1516000667800731 0.1516000667800731 0.1516000667800731 0.1515963304850716 0.1515963304850716 0.1515963304850716 0.1515963304850716 
0.1509943127314206 0.1509943127314206 0.1509943127314206 0.1509943127314206 0.1497963894081583 0.1497963894081583 0.1497963894081583 0.1497963894081583 0.1480072881713628 
0.1480072881713628 0.1480072881713628 0.1480072881713628 0.1456340697862528 0.1456340697862528 0.1456340697862528 0.1456340697862528 0.1426861002615743 0.1426861002615743 
0.1426861002615743 0.1426861002615743 0.1391750138862417 0.1391750138862417 0.1391750138862417 0.1391750138862417 0.1351146673141162 0.1351146673141162 0.1351146673141162 
0.1351146673141162 0.1305210848781215 0.1305210848781215 0.1305210848781215 0.1305210848781215 0.1254123953495245 0.1254123953495245 0.1254123953495245 0.1254123953495245 
0.1198087603919565 0.1198087603919565 0.1198087603919565 0.1198087603919565 0.1137322949925375 0.1137322949925375 0.1137322949925375 0.1137322949925375 0.1072069801841255 
0.1072069801841255 0.1072069801841255 0.1072069801841255 0.1002585684031377 0.1002585684031377 0.1002585684031377 0.1002585684031377 0.09291448185644563 0.09291448185644563 
0.09291448185644563 0.09291448185644563 0.05121289911463177 0.05121289911463177 0.05121289911463177 0.05121289911463177 0.046376260948666 0.046376260948666 0.046376260948666 
0.046376260948666 0.04135659686803411 0.04135659686803411 0.04135659686803411 0.04135659686803411 0.03617371719359597 0.03617371719359597 0.03617371719359597 0.03617371719359597 
0.03084807638359416 0.03084807638359416 0.03084807638359416 0.03084807638359416 0.02540069230925179 0.02540069230925179 0.02540069230925179 0.02540069230925179 0.01985306330683727 
0.01985306330683727 0.01985306330683727 0.01985306330683727 0.01422708333355252 0.01422708333355252 0.01422708333355252 0.01422708333355252 0.008544955562086358 0.008544955562086358 
0.008544955562086358 0.008544955562086358 0.002829104754835502 0.002829104754835502 0.002829104754835502 0.002829104754835502 -0.002897911236387682 -0.002897911236387682 -0.002897911236387682 
-0.002897911236387682 -0.008613490495890531 -0.008613490495890531 -0.008613490495890531 -0.008613490495890531 -0.01429507624353561 -0.01429507624353561 -0.01429507624353561 -0.01429507624353561 
-0.01992024585604655 -0.01992024585604655 -0.01992024585604655 -0.01992024585604655 -0.02546679935885832 -0.02546679935885832 -0.02546679935885832 -0.02546679935885832 -0.03091284703927461 
-0.03091284703927461 -0.03091284703927461 -0.03091284703927461 -0.03623689583516335 -0.03623689583516335 -0.03623689583516335 -0.03623689583516335 -0.04141793415825366 -0.04141793415825366 
-0.04141793415825366 -0.04141793415825366 -0.04643551481727549 -0.04643551481727549 -0.04643551481727549 -0.04643551481727549 -0.05126983571368244 -0.05126983571368244 -0.05126983571368244 
-0.05126983571368244 -0.05590181799148733 -0.05590181799148733 -0.05590181799148733 -0.05590181799148733 -0.06031318133279118 -0.06031318133279118 -0.06031318133279118 -0.06031318133279118 
-0.06448651610184589 -0.06448651610184589 -0.06448651610184589 -0.06448651610184589 -0.06840535205293352 -0.06840535205293352 -0.06840535205293352 -0.06840535205293352 -0.07205422333090089 
-0.07205422333090089 -0.07205422333090089 -0.07205422333090089 -0.07541872950782469 -0.07541872950782469 -0.07541872950782469 -0.07541872950782469 -0.07848559241492087 -0.07848559241492087 
-0.07848559241492087 -0.07848559241492087 -0.0812427085454121 -0.0812427085454121 -0.0812427085454121 -0.0812427085454121 -0.08367919682153753 -0.08367919682153753 -0.08367919682153753 
-0.08367919682153753 -0.08578544153719676 -0.08578544153719676 -0.08578544153719676 -0.08578544153719676 -0.08755313030674911 -0.08755313030674911 -0.08755313030674911 -0.08755313030674911 
-0.08897528687020118 -0.08897528687020118 -0.08897528687020118 -0.08897528687020118 -0.09004629862531849 -0.09004629862531849 -0.09004629862531849 -0.09004629862531849 -0.09076193877800237 
-0.09076193877800237 -0.09076193877800237 -0.09076193877800237 -0.09111938302351508 -0.09111938302351508 -0.09111938302351508 -0.09111938302351508 -0.0911172206927203 -0.0911172206927203 
-0.0911172206927203 -0.0911172206927203 -0.0907554603193497 -0.0907554603193497 -0.0907554603193497 -0.0907554603193497 -0.09003552960632473 -0.09003552960632473 -0.09003552960632473 
-0.09003552960632473 -0.08896026979126456 -0.08896026979126456 -0.08896026979126456 -0.08896026979126456 -0.08753392443341915 -0.08753392443341915 -0.08753392443341915 -0.08753392443341915 
-0.08576212266628142 -0.08576212266628142 -0.08576212266628142 -0.08576212266628142 -0.08365185698196648 -0.08365185698196648 -0.08365185698196648 -0.08365185698196648 -0.08121145563504237 
-0.08121145563504237 -0.08121145563504237 -0.08121145563504237 -0.07845054977471155 -0.07845054977471155 -0.07845054977471155 -0.07845054977471155 -0.07538003543506655 -0.07538003543506655 
-0.07538003543506655 -0.07538003543506655 -0.07201203053342212 -0.07201203053342212 -0.07201203053342212 -0.07201203053342212 -0.06835982704642946 -0.06835982704642946 -0.06835982704642946 
-0.06835982704642946 -0.06443783855271878 -0.06443783855271878 -0.06443783855271878 -0.06443783855271878 -0.06026154334908883 -0.06026154334908883 -0.06026154334908883 -0.06026154334908883 
-0.05584742336474015 -0.05584742336474015 -0.05584742336474015 -0.05584742336474015 -0.05121289911463177 -0.05121289911463177 -0.05121289911463177 -0.05121289911463177 -0.04637626094866602 
-0.04637626094866602 -0.04637626094866602 -0.04637626094866602 -0.04135659686803398 -0.04135659686803398 -0.04135659686803398 -0.04135659686803398 -0.03617371719359592 -0.03617371719359592 
-0.03617371719359592 -0.03617371719359592 -0.0308480763835941 -0.0308480763835941 -0.0308480763835941 -0.0308480763835941 -0.0254006923092517 -0.0254006923092517 -0.0254006923092517 
-0.0254006923092517 -0.01985306330683729 -0.01985306330683729 -0.01985306330683729 -0.01985306330683729 -0.01422708333355243 -0.01422708333355243 -0.01422708333355243 -0.01422708333355243 
-0.008544955562086395 -0.008544955562086395 -0.008544955562086395 -0.008544955562086395 -0.002829104754835544 -0.002829104754835544 -0.002829104754835544 -0.002829104754835544 0.00289791123638763 
0.00289791123638763 0.00289791123638763 0.00289791123638763 0.008613490495890523 0.008613490495890523 0.008613490495890523 0.008613490495890523 0.01429507624353542 0.01429507624353542 
0.01429507624353542 0.01429507624353542 0.01992024585604655 0.01992024585604655 0.01992024585604655 0.01992024585604655 0.02546679935885832 0.02546679935885832 0.02546679935885832 
0.02546679935885832 0.03091284703927456 0.03091284703927456 0.03091284703927456 0.03091284703927456 0.03623689583516344 0.03623689583516344 0.03623689583516344 0.03623689583516344 
0.04141793415825361 0.04141793415825361 0.04141793415825361 0.04141793415825361 0.04643551481727535 0.04643551481727535 0.04643551481727535 0.04643551481727535 0.05126983571368253 