Title = Result/Post/Linear_Advection_2D/Sine_Wave_2D/Quad100/
FileType = Solution
Variables = q
Zone T = Result/Post/Linear_Advection_2D/Sine_Wave_2D/Quad100/
ZoneType = FETriangle
Nodes = 40000
Elements = 20000
DataPacking = Block
StrandID = 2
SolutionTime = 2
0.0008188775102150429 0.0008188775102150429 0.0008188775102150429 0.0008188775102150429 0.002050928284528837 0.002050928284528837 0.002050928284528837 0.002050928284528837 0.003274884981883602 0.003274884981883602 
0.003274884981883602 0.003274884981883602 0.004485917204367503 0.004485917204367503 0.004485917204367503 0.004485917204367503 0.005679245561066385 0.005679245561066385 0.005679245561066385 
0.005679245561066385 0.006850160530136254 0.006850160530136254 0.006850160530136254 0.006850160530136254 0.007994041045134331 0.007994041045134331 0.007994041045134331 0.007994041045134331 
0.009106372732257223 0.009106372732257223 0.009106372732257223 0.009106372732257223 0.01018276572651186 0.01018276572651186 0.01018276572651186 0.01018276572651186 0.0112189719965071 
0.0112189719965071 0.0112189719965071 0.0112189719965071 0.0122109021094929 0.0122109021094929 0.0122109021094929 0.0122109021094929 0.01315464137048305 0.01315464137048305 
0.01315464137048305 0.01315464137048305 0.01404646527176792 0.01404646527176792 0.01404646527176792 0.01404646527176792 0.0148828541918446 0.0148828541918446 0.0148828541918446 
0.0148828541918446 0.01566050728575544 0.01566050728575544 0.01566050728575544 0.01566050728575544 0.01637635551201462 0.01637635551201462 0.01637635551201462 0.01637635551201462 
0.01702757374471304 0.01702757374471304 0.01702757374471304 0.01702757374471304 0.01761159192299958 0.01761159192299958 0.01761159192299958 0.01761159192299958 0.01812610519393704 
0.01812610519393704 0.01812610519393704 0.01812610519393704 0.01856908300870379 0.01856908300870379 0.01856908300870379 0.01856908300870379 0.01893877713624225 0.01893877713624225 
0.01893877713624225 0.01893877713624225 0.01923372856272821 0.01923372856272821 0.01923372856272821 0.01923372856272821 0.01945277324963183 0.01945277324963183 0.01945277324963183 
0.01945277324963183 0.01959504672764589 0.01959504672764589 0.01959504672764589 0.01959504672764589 0.01965998750835125 0.01965998750835125 0.01965998750835125 0.01965998750835125 
0.01964733930015514 0.01964733930015514 0.01964733930015514 0.01964733930015514 0.0195571520197567 0.0195571520197567 0.0195571520197567 0.0195571520197567 0.01938978159514918 
0.01938978159514918 0.01938978159514918 0.01938978159514918 0.01914588856093423 0.01914588856093423 0.01914588856093423 0.01914588856093423 0.01882643545149375 0.01882643545149375 
0.01882643545149375 0.01882643545149375 0.01843268300230644 0.01843268300230644 0.01843268300230644 0.01843268300230644 0.01796618517440084 0.01796618517440084 0.01796618517440084 
0.01796618517440084 0.01742878302158101 0.01742878302158101 0.01742878302158101 0.01742878302158101 0.01682259742462876 0.01682259742462876 0.01682259742462876 0.01682259742462876 
0.01615002072115516 0.01615002072115516 0.01615002072115516 0.01615002072115516 0.01541370726413779 0.01541370726413779 0.01541370726413779 0.01541370726413779 0.01461656294640186 
0.01461656294640186 0.01461656294640186 0.01461656294640186 0.01376173373238892 0.01376173373238892 0.01376173373238892 0.01376173373238892 0.01285259324247234 0.01285259324247234 
0.01285259324247234 0.01285259324247234 0.01189272943881905 0.01189272943881905 0.01189272943881905 0.01189272943881905 0.01088593046534201 0.01088593046534201 0.01088593046534201 
0.01088593046534201 0.00983616969762682 0.00983616969762682 0.00983616969762682 0.00983616969762682 0.008747590061833593 0.008747590061833593 0.008747590061833593 0.008747590061833593 
0.007624487684460052 0.007624487684460052 0.007624487684460052 0.007624487684460052 0.006471294937493014 0.006471294937493014 0.006471294937493014 0.006471294937493014 0.005292562945861134 
0.005292562945861134 0.005292562945861134 0.005292562945861134 0.004092943626223948 0.004092943626223948 0.004092943626223948 0.004092943626223948 0.002877171327982119 0.002877171327982119 
0.002877171327982119 0.002877171327982119 0.001650044148963304 0.001650044148963304 0.001650044148963304 0.001650044148963304 0.0004164049995219991 0.0004164049995219991 0.0004164049995219991 
0.0004164049995219991 -0.0008188775102150694 -0.0008188775102150694 -0.0008188775102150694 -0.0008188775102150694 -0.002050928284528898 -0.002050928284528898 -0.002050928284528898 -0.002050928284528898 
-0.003274884981883633 -0.003274884981883633 -0.003274884981883633 -0.003274884981883633 -0.00448591720436758 -0.00448591720436758 -0.00448591720436758 -0.00448591720436758 -0.005679245561066444 
-0.005679245561066444 -0.005679245561066444 -0.005679245561066444 -0.006850160530136267 -0.006850160530136267 -0.006850160530136267 -0.006850160530136267 -0.007994041045134334 -0.007994041045134334 
-0.007994041045134334 -0.007994041045134334 -0.009106372732257206 -0.009106372732257206 -0.009106372732257206 -0.009106372732257206 -0.01018276572651181 -0.01018276572651181 -0.01018276572651181 
-0.01018276572651181 -0.01121897199650704 -0.01121897199650704 -0.01121897199650704 -0.01121897199650704 -0.01221090210949283 -0.01221090210949283 -0.01221090210949283 -0.01221090210949283 
-0.01315464137048298 -0.01315464137048298 -0.01315464137048298 -0.01315464137048298 -0.01404646527176781 -0.01404646527176781 -0.01404646527176781 -0.01404646527176781 -0.01488285419184454 
-0.01488285419184454 -0.01488285419184454 -0.01488285419184454 -0.01566050728575539 -0.01566050728575539 -0.01566050728575539 -0.01566050728575539 -0.01637635551201446 -0.01637635551201446 
-0.01637635551201446 -0.01637635551201446 -0.01702757374471305 -0.01702757374471305 -0.01702757374471305 -0.01702757374471305 -0.01761159192299945 -0.01761159192299945 -0.01761159192299945 
-0.01761159192299945 -0.01812610519393706 -0.01812610519393706 -0.01812610519393706 -0.01812610519393706 -0.01856908300870366 -0.01856908300870366 -0.01856908300870366 -0.01856908300870366 
-0.01893877713624238 -0.01893877713624238 -0.01893877713624238 -0.01893877713624238 -0.01923372856272813 -0.01923372856272813 -0.01923372856272813 -0.01923372856272813 -0.01945277324963186 
-0.01945277324963186 -0.01945277324963186 -0.01945277324963186 -0.01959504672764573 -0.01959504672764573 -0.01959504672764573 -0.01959504672764573 -0.01965998750835116 -0.01965998750835116 
-0.01965998750835116 -0.01965998750835116 -0.0196473393001549 -0.0196473393001549 -0.0196473393001549 -0.0196473393001549 -0.01955715201975656 -0.01955715201975656 -0.01955715201975656 
-0.01955715201975656 -0.01938978159514908 -0.01938978159514908 -0.01938978159514908 -0.01938978159514908 -0.01914588856093415 -0.01914588856093415 -0.01914588856093415 -0.01914588856093415 
-0.01882643545149368 -0.01882643545149368 -0.01882643545149368 -0.01882643545149368 -0.01843268300230637 -0.01843268300230637 -0.01843268300230637 -0.01843268300230637 -0.01796618517440079 
-0.01796618517440079 -0.01796618517440079 -0.01796618517440079 -0.01742878302158112 -0.01742878302158112 -0.01742878302158112 -0.01742878302158112 -0.01682259742462883 -0.01682259742462883 
-0.01682259742462883 -0.01682259742462883 -0.01615002072115521 -0.01615002072115521 -0.01615002072115521 -0.01615002072115521 -0.01541370726413775 -0.01541370726413775 -0.01541370726413775 
-0.01541370726413775 -0.01461656294640196 -0.01461656294640196 -0.01461656294640196 -0.01461656294640196 -0.01376173373238893 -0.01376173373238893 -0.01376173373238893 -0.01376173373238893 
-0.01285259324247244 -0.01285259324247244 -0.01285259324247244 -0.01285259324247244 -0.01189272943881907 -0.01189272943881907 -0.01189272943881907 -0.01189272943881907 -0.01088593046534214 
-0.01088593046534214 -0.01088593046534214 -0.01088593046534214 -0.009836169697626834 -0.009836169697626834 -0.009836169697626834 -0.009836169697626834 -0.008747590061833597 -0.008747590061833597 
-0.008747590061833597 -0.008747590061833597 -0.00762448768446008 -0.00762448768446008 -0.00762448768446008 -0.00762448768446008 -0.006471294937493002 -0.006471294937493002 -0.006471294937493002 
-0.006471294937493002 -0.005292562945861123 -0.005292562945861123 -0.005292562945861123 -0.005292562945861123 -0.004092943626223941 -0.004092943626223941 -0.004092943626223941 -0.004092943626223941 
-0.00287717132798213 -0.00287717132798213 -0.00287717132798213 -0.00287717132798213 -0.001650044148963321 -0.001650044148963321 -0.001650044148963321 -0.001650044148963321 -0.0004164049995220216 
-0.0004164049995220216 -0.0004164049995220216 -0.0004164049995220216 0.002194532281958259 0.002194532281958259 0.002194532281958259 0.002194532281958259 0.005599375188183982 0.005599375188183982 
0.005599375188183982 0.005599375188183982 0.008982119918653133 0.008982119918653133 0.008982119918653133 0.008982119918653133 0.01232941632534361 0.01232941632534361 0.01232941632534361 
0.01232941632534361 0.01562805415857245 0.01562805415857245 0.01562805415857245 0.01562805415857245 0.01886501520181624 0.01886501520181624 0.01886501520181624 0.01886501520181624 
0.02202752464866411 0.02202752464866411 0.02202752464866411 0.02202752464866411 0.02510310151914245 0.02510310151914245 0.02510310151914245 0.02510310151914245 0.02807960791644093 
0.02807960791644093 0.02807960791644093 0.02807960791644093 0.03094529692964582 0.03094529692964582 0.03094529692964582 0.03094529692964582 0.03368885899343076 0.03368885899343076 
0.03368885899343076 0.03368885899343076 0.0362994665217443 0.0362994665217443 0.0362994665217443 0.0362994665217443 0.03876681663934529 0.03876681663934529 0.03876681663934529 
0.03876681663934529 0.04108117184254466 0.04108117184254466 0.04108117184254466 0.04108117184254466 0.04323339842868361 0.04323339842868361 0.04323339842868361 0.04323339842868361 
0.04521500254268553 0.04521500254268553 0.04521500254268553 0.04521500254268553 0.04701816369842127 0.04701816369842127 0.04701816369842127 0.04701816369842127 0.04863576564259496 
0.04863576564259496 0.04863576564259496 0.04863576564259496 0.05006142443934518 0.05006142443934518 0.05006142443934518 0.05006142443934518 0.05128951366472262 0.05128951366472262 
0.05128951366472262 0.05128951366472262 0.05231518661161529 0.05231518661161529 0.05231518661161529 0.05231518661161529 0.05313439541748721 0.05313439541748721 0.05313439541748721 
0.05313439541748721 0.05374390703944253 0.05374390703944253 0.05374390703944253 0.05374390703944253 0.05414131601356875 0.05414131601356875 0.05414131601356875 0.05414131601356875 
0.05432505394820387 0.05432505394820387 0.05432505394820387 0.05432505394820387 0.05429439571366177 0.05429439571366177 0.05429439571366177 0.05429439571366177 0.0540494623039878 
0.0540494623039878 0.0540494623039878 0.0540494623039878 0.0535912203594506 0.0535912203594506 0.0535912203594506 0.0535912203594506 0.05292147835165423 0.05292147835165423 
0.05292147835165423 0.05292147835165423 0.05204287944632755 0.05204287944632755 0.05204287944632755 0.05204287944632755 0.0509588910719562 0.0509588910719562 0.0509588910719562 
0.0509588910719562 0.04967379123542665 0.04967379123542665 0.04967379123542665 0.04967379123542665 0.04819265163868755 0.04819265163868755 0.04819265163868755 0.04819265163868755 
0.04652131766305845 0.04652131766305845 0.04652131766305845 0.04652131766305845 0.04466638530018181 0.04466638530018181 0.04466638530018181 0.04466638530018181 0.04263517512065576 
0.04263517512065576 0.04263517512065576 0.04263517512065576 0.04043570338308719 0.04043570338308719 0.04043570338308719 0.04043570338308719 0.03807665039758133 0.03807665039758133 
0.03807665039758133 0.03807665039758133 0.03556732626852304 0.03556732626852304 0.03556732626852304 0.03556732626852304 0.03291763415184856 0.03291763415184856 0.03291763415184856 
0.03291763415184856 0.03013803117181334 0.03013803117181334 0.03013803117181334 0.03013803117181334 0.0272394871514997 0.0272394871514997 0.0272394871514997 0.0272394871514997 
0.02423344131993708 0.02423344131993708 0.02423344131993708 0.02423344131993708 0.02113175716669082 0.02113175716669082 0.02113175716669082 0.02113175716669082 0.01794667562208912 
0.01794667562208912 0.01794667562208912 0.01794667562208912 0.01469076674786327 0.01469076674786327 0.01469076674786327 0.01469076674786327 0.01137688012885654 0.01137688012885654 
0.01137688012885654 0.01137688012885654 0.008018094161583356 0.008018094161583356 0.008018094161583356 0.008018094161583356 0.00462766443977313 0.00462766443977313 0.00462766443977313 
0.00462766443977313 0.001218971440597903 0.001218971440597903 0.001218971440597903 0.001218971440597903 -0.002194532281958284 -0.002194532281958284 -0.002194532281958284 -0.002194532281958284 
-0.005599375188184036 -0.005599375188184036 -0.005599375188184036 -0.005599375188184036 -0.008982119918653095 -0.008982119918653095 -0.008982119918653095 -0.008982119918653095 -0.01232941632534358 
-0.01232941632534358 -0.01232941632534358 -0.01232941632534358 -0.01562805415857242 -0.01562805415857242 -0.01562805415857242 -0.01562805415857242 -0.01886501520181628 -0.01886501520181628 
-0.01886501520181628 -0.01886501520181628 -0.02202752464866412 -0.02202752464866412 -0.02202752464866412 -0.02202752464866412 -0.02510310151914246 -0.02510310151914246 -0.02510310151914246 
-0.02510310151914246 -0.02807960791644088 -0.02807960791644088 -0.02807960791644088 -0.02807960791644088 -0.03094529692964575 -0.03094529692964575 -0.03094529692964575 -0.03094529692964575 
-0.03368885899343069 -0.03368885899343069 -0.03368885899343069 -0.03368885899343069 -0.03629946652174423 -0.03629946652174423 -0.03629946652174423 -0.03629946652174423 -0.03876681663934517 
-0.03876681663934517 -0.03876681663934517 -0.03876681663934517 -0.04108117184254446 -0.04108117184254446 -0.04108117184254446 -0.04108117184254446 -0.04323339842868357 -0.04323339842868357 
-0.04323339842868357 -0.04323339842868357 -0.04521500254268568 -0.04521500254268568 -0.04521500254268568 -0.04521500254268568 -0.04701816369842125 -0.04701816369842125 -0.04701816369842125 
-0.04701816369842125 -0.04863576564259504 -0.04863576564259504 -0.04863576564259504 -0.04863576564259504 -0.05006142443934509 -0.05006142443934509 -0.05006142443934509 -0.05006142443934509 
-0.05128951366472263 -0.05128951366472263 -0.05128951366472263 -0.05128951366472263 -0.05231518661161512 -0.05231518661161512 -0.05231518661161512 -0.05231518661161512 -0.05313439541748719 
-0.05313439541748719 -0.05313439541748719 -0.05313439541748719 -0.05374390703944233 -0.05374390703944233 -0.05374390703944233 -0.05374390703944233 -0.05414131601356861 -0.05414131601356861 
-0.05414131601356861 -0.05414131601356861 -0.05432505394820369 -0.05432505394820369 -0.05432505394820369 -0.05432505394820369 -0.05429439571366185 -0.05429439571366185 -0.05429439571366185 
-0.05429439571366185 -0.05404946230398783 -0.05404946230398783 -0.05404946230398783 -0.05404946230398783 -0.05359122035945058 -0.05359122035945058 -0.05359122035945058 -0.05359122035945058 
-0.0529214783516541 -0.0529214783516541 -0.0529214783516541 -0.0529214783516541 -0.05204287944632741 -0.05204287944632741 -0.05204287944632741 -0.05204287944632741 -0.05095889107195609 
-0.05095889107195609 -0.05095889107195609 -0.05095889107195609 -0.04967379123542656 -0.04967379123542656 -0.04967379123542656 -0.04967379123542656 -0.04819265163868733 -0.04819265163868733 
-0.04819265163868733 -0.04819265163868733 -0.04652131766305843 -0.04652131766305843 -0.04652131766305843 -0.04652131766305843 -0.04466638530018188 -0.04466638530018188 -0.04466638530018188 
-0.04466638530018188 -0.04263517512065605 -0.04263517512065605 -0.04263517512065605 -0.04263517512065605 -0.04043570338308734 -0.04043570338308734 -0.04043570338308734 -0.04043570338308734 
-0.03807665039758153 -0.03807665039758153 -0.03807665039758153 -0.03807665039758153 -0.03556732626852302 -0.03556732626852302 -0.03556732626852302 -0.03556732626852302 -0.03291763415184869 
-0.03291763415184869 -0.03291763415184869 -0.03291763415184869 -0.03013803117181325 -0.03013803117181325 -0.03013803117181325 -0.03013803117181325 -0.02723948715149975 -0.02723948715149975 
-0.02723948715149975 -0.02723948715149975 -0.02423344131993707 -0.02423344131993707 -0.02423344131993707 -0.02423344131993707 -0.02113175716669078 -0.02113175716669078 -0.02113175716669078 
-0.02113175716669078 -0.01794667562208927 -0.01794667562208927 -0.01794667562208927 -0.01794667562208927 -0.01469076674786343 -0.01469076674786343 -0.01469076674786343 -0.01469076674786343 
-0.01137688012885664 -0.01137688012885664 -0.01137688012885664 -0.01137688012885664 -0.008018094161583379 -0.008018094161583379 -0.008018094161583379 -0.008018094161583379 -0.004627664439773148 
-0.004627664439773148 -0.004627664439773148 -0.004627664439773148 -0.001218971440597924 -0.001218971440597924 -0.001218971440597924 -0.001218971440597924 0.003561526237371033 0.003561526237371033 
0.003561526237371033 0.003561526237371033 0.009125723916082566 0.009125723916082566 0.009125723916082566 0.009125723916082566 0.014653906531644 0.014653906531644 0.014653906531644 
0.014653906531644 0.02012425687285811 0.02012425687285811 0.02012425687285811 0.02012425687285811 0.02551518596609344 0.02551518596609344 0.02551518596609344 0.02551518596609344 
0.03080541827710031 0.03080541827710031 0.03080541827710031 0.03080541827710031 0.03597407567582436 0.03597407567582436 0.03597407567582436 0.03597407567582436 0.04100075983284781 
0.04100075983284781 0.04100075983284781 0.04100075983284781 0.04586563272227639 0.04586563272227639 0.04586563272227639 0.04586563272227639 0.05054949491336456 0.05054949491336456 
0.05054949491336456 0.05054949491336456 0.0550338613418972 0.0550338613418972 0.0550338613418972 0.0550338613418972 0.05930103426229302 0.05930103426229302 0.05930103426229302 
0.05930103426229302 0.06333417309252107 0.06333417309252107 0.06333417309252107 0.06333417309252107 0.06711736087618433 0.06711736087618433 0.06711736087618433 0.06711736087618433 
0.07063566709947472 0.07063566709947472 0.07063566709947472 0.07063566709947472 0.0738752066150902 0.0738752066150902 0.0738752066150902 0.0738752066150902 0.0768231944405674 
0.0768231944405674 0.0768231944405674 0.0768231944405674 0.07946799621476688 0.07946799621476688 0.07946799621476688 0.07946799621476688 0.08179917411338052 0.08179917411338052 
0.08179917411338052 0.08179917411338052 0.08380752804225669 0.08380752804225669 0.08380752804225669 0.08380752804225669 0.08548513194596759 0.08548513194596759 0.08548513194596759 
0.08548513194596759 0.08682536508832962 0.08682536508832962 0.08682536508832962 0.08682536508832962 0.08782293818142414 0.08782293818142414 0.08782293818142414 0.08782293818142414 
0.08847391426000052 0.08847391426000052 0.08847391426000052 0.08847391426000052 0.08877572421887932 0.08877572421887932 0.08877572421887932 0.08877572421887932 0.08872717695203672 
0.08872717695203672 0.08872717695203672 0.08872717695203672 0.0883284640533557 0.0883284640533557 0.0883284640533557 0.0883284640533557 0.08758115906049281 0.08758115906049281 
0.08758115906049281 0.08758115906049281 0.08648821124484385 0.08648821124484385 0.08648821124484385 0.08648821124484385 0.08505393397211659 0.08505393397211659 0.08505393397211659 
0.08505393397211659 0.08328398767944772 0.08328398767944772 0.08328398767944772 0.08328398767944772 0.08118535753624273 0.08118535753624273 0.08118535753624273 0.08118535753624273 
0.07876632587690395 0.07876632587690395 0.07876632587690395 0.07876632587690395 0.07603643951424054 0.07603643951424054 0.07603643951424054 0.07603643951424054 0.07300647206255917 
0.07300647206255917 0.07300647206255917 0.07300647206255917 0.06968838141913133 0.06968838141913133 0.06968838141913133 0.06968838141913133 0.06609526257183533 0.06609526257183533 
0.06609526257183533 0.06609526257183533 0.06224129591922129 0.06224129591922129 0.06224129591922129 0.06224129591922129 0.05814169130695751 0.05814169130695751 0.05814169130695751 
0.05814169130695751 0.05381262800151734 0.05381262800151734 0.05381262800151734 0.05381262800151734 0.04927119083800634 0.04927119083800634 0.04927119083800634 0.04927119083800634 
0.04453530279412357 0.04453530279412357 0.04453530279412357 0.04453530279412357 0.03962365425635694 0.03962365425635694 0.03962365425635694 0.03962365425635694 0.03455562925756619 
0.03455562925756619 0.03455562925756619 0.03455562925756619 0.02935122897706114 0.02935122897706114 0.02935122897706114 0.02935122897706114 0.02403099280508463 0.02403099280508463 
0.02403099280508463 0.02403099280508463 0.01861591728322276 0.01861591728322276 0.01861591728322276 0.01861591728322276 0.01312737324064757 0.01312737324064757 0.01312737324064757 
0.01312737324064757 0.007587021453217912 0.007587021453217912 0.007587021453217912 0.007587021453217912 0.002016727158292823 0.002016727158292823 0.002016727158292823 0.002016727158292823 
-0.003561526237371053 -0.003561526237371053 -0.003561526237371053 -0.003561526237371053 -0.009125723916082636 -0.009125723916082636 -0.009125723916082636 -0.009125723916082636 -0.01465390653164401 
-0.01465390653164401 -0.01465390653164401 -0.01465390653164401 -0.02012425687285816 -0.02012425687285816 -0.02012425687285816 -0.02012425687285816 -0.02551518596609349 -0.02551518596609349 
-0.02551518596609349 -0.02551518596609349 -0.03080541827710043 -0.03080541827710043 -0.03080541827710043 -0.03080541827710043 -0.03597407567582435 -0.03597407567582435 -0.03597407567582435 
-0.03597407567582435 -0.04100075983284795 -0.04100075983284795 -0.04100075983284795 -0.04100075983284795 -0.04586563272227637 -0.04586563272227637 -0.04586563272227637 -0.04586563272227637 
-0.05054949491336453 -0.05054949491336453 -0.05054949491336453 -0.05054949491336453 -0.05503386134189715 -0.05503386134189715 -0.05503386134189715 -0.05503386134189715 -0.059301034262293 
-0.059301034262293 -0.059301034262293 -0.059301034262293 -0.06333417309252087 -0.06333417309252087 -0.06333417309252087 -0.06333417309252087 -0.06711736087618439 -0.06711736087618439 
-0.06711736087618439 -0.06711736087618439 -0.07063566709947472 -0.07063566709947472 -0.07063566709947472 -0.07063566709947472 -0.07387520661509007 -0.07387520661509007 -0.07387520661509007 
-0.07387520661509007 -0.07682319444056737 -0.07682319444056737 -0.07682319444056737 -0.07682319444056737 -0.07946799621476683 -0.07946799621476683 -0.07946799621476683 -0.07946799621476683 
-0.08179917411338045 -0.08179917411338045 -0.08179917411338045 -0.08179917411338045 -0.08380752804225675 -0.08380752804225675 -0.08380752804225675 -0.08380752804225675 -0.08548513194596755 
-0.08548513194596755 -0.08548513194596755 -0.08548513194596755 -0.08682536508832968 -0.08682536508832968 -0.08682536508832968 -0.08682536508832968 -0.08782293818142412 -0.08782293818142412 
-0.08782293818142412 -0.08782293818142412 -0.08847391426000052 -0.08847391426000052 -0.08847391426000052 -0.08847391426000052 -0.08877572421887928 -0.08877572421887928 -0.08877572421887928 
-0.08877572421887928 -0.08872717695203641 -0.08872717695203641 -0.08872717695203641 -0.08872717695203641 -0.08832846405335562 -0.08832846405335562 -0.08832846405335562 -0.08832846405335562 
-0.08758115906049274 -0.08758115906049274 -0.08758115906049274 -0.08758115906049274 -0.08648821124484377 -0.08648821124484377 -0.08648821124484377 -0.08648821124484377 -0.08505393397211658 
-0.08505393397211658 -0.08505393397211658 -0.08505393397211658 -0.08328398767944764 -0.08328398767944764 -0.08328398767944764 -0.08328398767944764 -0.08118535753624273 -0.08118535753624273 
-0.08118535753624273 -0.08118535753624273 -0.07876632587690399 -0.07876632587690399 -0.07876632587690399 -0.07876632587690399 -0.07603643951424045 -0.07603643951424045 -0.07603643951424045 
-0.07603643951424045 -0.07300647206255931 -0.07300647206255931 -0.07300647206255931 -0.07300647206255931 -0.06968838141913128 -0.06968838141913128 -0.06968838141913128 -0.06968838141913128 
-0.06609526257183528 -0.06609526257183528 -0.06609526257183528 -0.06609526257183528 -0.06224129591922137 -0.06224129591922137 -0.06224129591922137 -0.06224129591922137 -0.05814169130695763 
-0.05814169130695763 -0.05814169130695763 -0.05814169130695763 -0.05381262800151743 -0.05381262800151743 -0.05381262800151743 -0.05381262800151743 -0.04927119083800633 -0.04927119083800633 
-0.04927119083800633 -0.04927119083800633 -0.04453530279412361 -0.04453530279412361 -0.04453530279412361 -0.04453530279412361 -0.03962365425635703 -0.03962365425635703 -0.03962365425635703 
-0.03962365425635703 -0.03455562925756624 -0.03455562925756624 -0.03455562925756624 -0.03455562925756624 -0.02935122897706116 -0.02935122897706116 -0.02935122897706116 -0.02935122897706116 
-0.02403099280508455 -0.02403099280508455 -0.02403099280508455 -0.02403099280508455 -0.01861591728322272 -0.01861591728322272 -0.01861591728322272 -0.01861591728322272 -0.01312737324064753 
-0.01312737324064753 -0.01312737324064753 -0.01312737324064753 -0.007587021453217929 -0.007587021453217929 -0.007587021453217929 -0.007587021453217929 -0.00201672715829284 -0.00201672715829284 
-0.00201672715829284 -0.00201672715829284 0.004914464475831415 0.004914464475831415 0.004914464475831415 0.004914464475831415 0.01261605758083102 0.01261605758083102 0.01261605758083102 
0.01261605758083102 0.02026786087028752 0.02026786087028752 0.02026786087028752 0.02026786087028752 0.02783967617239387 0.02783967617239387 0.02783967617239387 0.02783967617239387 
0.03530162099138591 0.03530162099138591 0.03530162099138591 0.03530162099138591 0.04262424644010155 0.04262424644010155 0.04262424644010155 0.04262424644010155 0.04977865346128402 
0.04977865346128402 0.04977865346128402 0.04977865346128402 0.05673660687895833 0.05673660687895833 0.05673660687895833 0.05673660687895833 0.06347064682977145 0.06347064682977145 
0.06347064682977145 0.06347064682977145 0.0699541971345278 0.0699541971345278 0.0699541971345278 0.0699541971345278 0.07616167018222683 0.07616167018222683 0.07616167018222683 
0.07616167018222683 0.08206856791267399 0.08206856791267399 0.08206856791267399 0.08206856791267399 0.08765157849913202 0.08765157849913202 0.08765157849913202 0.08765157849913202 
0.09288866834945117 0.09288866834945117 0.09288866834945117 0.09288866834945117 0.09775916906259091 0.09775916906259091 0.09775916906259091 0.09775916906259091 0.1022438589973567 
0.1022438589973567 0.1022438589973567 0.1022438589973567 0.1063250391314358 0.1063250391314358 0.1063250391314358 0.1063250391314358 0.109986602911353 0.109986602911353 
0.109986602911353 0.109986602911353 0.1132140998176783 0.1132140998176783 0.1132140998176783 0.1132140998176783 0.1159947923946255 0.1159947923946255 0.1159947923946255 
0.1159947923946255 0.118317706518971 0.118317706518971 0.118317706518971 0.118317706518971 0.1201736747099044 0.1201736747099044 0.1201736747099044 0.1201736747099044 
0.1215553723088876 0.1215553723088876 0.1215553723088876 0.1215553723088876 0.1224573463867347 0.1224573463867347 0.1224573463867347 0.1224573463867347 0.1228760372638333 
0.1228760372638333 0.1228760372638333 0.1228760372638333 0.1228097925585732 0.1228097925585732 0.1228097925585732 0.1228097925585732 0.1222588737085417 0.1222588737085417 
0.1222588737085417 0.1222588737085417 0.1212254549387489 0.1212254549387489 0.1212254549387489 0.1212254549387489 0.1197136146809552 0.1197136146809552 0.1197136146809552 
0.1197136146809552 0.1177293194779641 0.1177293194779641 0.1177293194779641 0.1177293194779641 0.1152804004364033 0.1152804004364033 0.1152804004364033 0.1152804004364033 
0.1123765223209251 0.1123765223209251 0.1123765223209251 0.1123765223209251 0.1090291454117958 0.1090291454117958 0.1090291454117958 0.1090291454117958 0.1052514802764047 
0.1052514802764047 0.1052514802764047 0.1052514802764047 0.10105843563319 0.10105843563319 0.10105843563319 0.10105843563319 0.09646655951373864 0.09646655951373864 
0.09646655951373864 0.09646655951373864 0.09149397395526554 0.09149397395526554 0.09149397395526554 0.09149397395526554 0.08616030348121156 0.08616030348121156 0.08616030348121156 
0.08616030348121156 0.08048659765221557 0.08048659765221557 0.08048659765221557 0.08048659765221557 0.07449524799311524 0.07449524799311524 0.07449524799311524 0.07449524799311524 
0.06820989962382749 0.06820989962382749 0.06820989962382749 0.06820989962382749 0.06165535794286357 0.06165535794286357 0.06165535794286357 0.06165535794286357 0.05485749073175278 
0.05485749073175278 0.05485749073175278 0.05485749073175278 0.04784312606672732 0.04784312606672732 0.04784312606672732 0.04784312606672732 0.04063994644056173 0.04063994644056173 
0.04063994644056173 0.04063994644056173 0.03327637951242045 0.03327637951242045 0.03327637951242045 0.03327637951242045 0.02578148591687559 0.02578148591687559 0.02578148591687559 
0.02578148591687559 0.01818484457485729 0.01818484457485729 0.01818484457485729 0.01818484457485729 0.01051643595916725 0.01051643595916725 0.01051643595916725 0.01051643595916725 
0.002806523775249025 0.002806523775249025 0.002806523775249025 0.002806523775249025 -0.004914464475831441 -0.004914464475831441 -0.004914464475831441 -0.004914464475831441 -0.01261605758083108 
-0.01261605758083108 -0.01261605758083108 -0.01261605758083108 -0.02026786087028763 -0.02026786087028763 -0.02026786087028763 -0.02026786087028763 -0.02783967617239396 -0.02783967617239396 
-0.02783967617239396 -0.02783967617239396 -0.03530162099138602 -0.03530162099138602 -0.03530162099138602 -0.03530162099138602 -0.04262424644010171 -0.04262424644010171 -0.04262424644010171 
-0.04262424644010171 -0.049778653461284 -0.049778653461284 -0.049778653461284 -0.049778653461284 -0.05673660687895846 -0.05673660687895846 -0.05673660687895846 -0.05673660687895846 
-0.06347064682977152 -0.06347064682977152 -0.06347064682977152 -0.06347064682977152 -0.06995419713452777 -0.06995419713452777 -0.06995419713452777 -0.06995419713452777 -0.0761616701822268 