Title = RSC/Post/Linear_Advection_2D/Sine_Wave_2D/Quad100/
FileType = Solution
Variables = q
Zone T = RSC/Post/Linear_Advection_2D/Sine_Wave_2D/Quad100/
ZoneType = FETriangle
Nodes = 40000
Elements = 20000
DataPacking = Block
StrandID = 10
SolutionTime = 0.9
-0.1606629336991516 -0.1606629336991516 -0.1606629336991516 -0.1606629336991516 -0.1732496717316395 -0.1732496717316395 -0.1732496717316395 -0.1732496717316395 -0.1851526724600488 -0.1851526724600488 
-0.1851526724600488 -0.1851526724600488 -0.196324960178468 -0.196324960178468 -0.196324960178468 -0.196324960178468 -0.2067224429714057 -0.2067224429714057 -0.2067224429714057 
-0.2067224429714057 -0.2163040867244359 -0.2163040867244359 -0.2163040867244359 -0.2163040867244359 -0.225032077067102 -0.225032077067102 -0.225032077067102 -0.225032077067102 
-0.232871968608961 -0.232871968608961 -0.232871968608961 -0.232871968608961 -0.239792820879803 -0.239792820879803 -0.239792820879803 -0.239792820879803 -0.2457673204375516 
-0.2457673204375516 -0.2457673204375516 -0.2457673204375516 -0.2507718886619416 -0.2507718886619416 -0.2507718886619416 -0.2507718886619416 -0.254786774808561 -0.254786774808561 
-0.254786774808561 -0.254786774808561 -0.2577961339560164 -0.2577961339560164 -0.2577961339560164 -0.2577961339560164 -0.2597880895385979 -0.2597880895385979 -0.2597880895385979 
-0.2597880895385979 -0.2607547802176591 -0.2607547802176591 -0.2607547802176591 -0.2607547802176591 -0.2606923909067287 -0.2606923909067287 -0.2606923909067287 -0.2606923909067287 
-0.2596011678279143 -0.2596011678279143 -0.2596011678279143 -0.2596011678279143 -0.257485417540175 -0.257485417540175 -0.257485417540175 -0.257485417540175 -0.2543534899433024 
-0.2543534899433024 -0.2543534899433024 -0.2543534899433024 -0.2502177453246792 -0.2502177453246792 -0.2502177453246792 -0.2502177453246792 -0.245094505578874 -0.245094505578874 
-0.245094505578874 -0.245094505578874 -0.2390039897925776 -0.2390039897925776 -0.2390039897925776 -0.2390039897925776 -0.2319702344491065 -0.2319702344491065 -0.2319702344491065 
-0.2319702344491065 -0.2240209985673842 -0.2240209985673842 -0.2240209985673842 -0.2240209985673842 -0.2151876541497755 -0.2151876541497755 -0.2151876541497755 -0.2151876541497755 
-0.2055050623711253 -0.2055050623711253 -0.2055050623711253 -0.2055050623711253 -0.1950114359976287 -0.1950114359976287 -0.1950114359976287 -0.1950114359976287 -0.1837481885785 
-0.1837481885785 -0.1837481885785 -0.1837481885785 -0.1717597710056143 -0.1717597710056143 -0.1717597710056143 -0.1717597710056143 -0.1590934960861448 -0.1590934960861448 
-0.1590934960861448 -0.1590934960861448 -0.1457993518205277 -0.1457993518205277 -0.1457993518205277 -0.1457993518205277 -0.1319298041226626 -0.1319298041226626 -0.1319298041226626 
-0.1319298041226626 -0.1175395897609198 -0.1175395897609198 -0.1175395897609198 -0.1175395897609198 -0.1026855003371214 -0.1026855003371214 -0.1026855003371214 -0.1026855003371214 
-0.08742615815603512 -0.08742615815603512 -0.08742615815603512 -0.08742615815603512 -0.07182178486991926 -0.07182178486991926 -0.07182178486991926 -0.07182178486991926 -0.05593396381117419 
-0.05593396381117419 -0.05593396381117419 -0.05593396381117419 -0.03982539695106375 -0.03982539695106375 -0.03982539695106375 -0.03982539695106375 -0.02355965744368066 -0.02355965744368066 
-0.02355965744368066 -0.02355965744368066 -0.007200938731751027 -0.007200938731751027 -0.007200938731751027 -0.007200938731751027 0.009186198795556762 0.009186198795556762 0.009186198795556762 
0.009186198795556762 0.02553708259299362 0.02553708259299362 0.02553708259299362 0.02553708259299362 0.04178718319221925 0.04178718319221925 0.04178718319221925 0.04178718319221925 
0.05787236887013322 0.05787236887013322 0.05787236887013322 0.05787236887013322 0.07372915874748717 0.07372915874748717 0.07372915874748717 0.07372915874748717 0.0892949733189133 
0.0892949733189133 0.0892949733189133 0.0892949733189133 0.1045083814256425 0.1045083814256425 0.1045083814256425 0.1045083814256425 0.1193093426962225 0.1193093426962225 
0.1193093426962225 0.1193093426962225 0.1336394444984345 0.1336394444984345 0.1336394444984345 0.1336394444984345 0.1474421324672657 0.1474421324672657 0.1474421324672657 
0.1474421324672657 0.1606629336991517 0.1606629336991517 0.1606629336991517 0.1606629336991517 0.1732496717316399 0.1732496717316399 0.1732496717316399 0.1732496717316399 
0.1851526724600489 0.1851526724600489 0.1851526724600489 0.1851526724600489 0.1963249601784684 0.1963249601784684 0.1963249601784684 0.1963249601784684 0.2067224429714058 
0.2067224429714058 0.2067224429714058 0.2067224429714058 0.2163040867244357 0.2163040867244357 0.2163040867244357 0.2163040867244357 0.2250320770671018 0.2250320770671018 
0.2250320770671018 0.2250320770671018 0.2328719686089605 0.2328719686089605 0.2328719686089605 0.2328719686089605 0.2397928208798032 0.2397928208798032 0.2397928208798032 
0.2397928208798032 0.2457673204375515 0.2457673204375515 0.2457673204375515 0.2457673204375515 0.2507718886619414 0.2507718886619414 0.2507718886619414 0.2507718886619414 
0.254786774808561 0.254786774808561 0.254786774808561 0.254786774808561 0.2577961339560162 0.2577961339560162 0.2577961339560162 0.2577961339560162 0.2597880895385978 
0.2597880895385978 0.2597880895385978 0.2597880895385978 0.2607547802176599 0.2607547802176599 0.2607547802176599 0.2607547802176599 0.2606923909067291 0.2606923909067291 
0.2606923909067291 0.2606923909067291 0.2596011678279144 0.2596011678279144 0.2596011678279144 0.2596011678279144 0.2574854175401747 0.2574854175401747 0.2574854175401747 
0.2574854175401747 0.2543534899433021 0.2543534899433021 0.2543534899433021 0.2543534899433021 0.2502177453246792 0.2502177453246792 0.2502177453246792 0.2502177453246792 
0.2450945055788741 0.2450945055788741 0.2450945055788741 0.2450945055788741 0.2390039897925774 0.2390039897925774 0.2390039897925774 0.2390039897925774 0.2319702344491064 
0.2319702344491064 0.2319702344491064 0.2319702344491064 0.2240209985673839 0.2240209985673839 0.2240209985673839 0.2240209985673839 0.2151876541497752 0.2151876541497752 
0.2151876541497752 0.2151876541497752 0.205505062371125 0.205505062371125 0.205505062371125 0.205505062371125 0.1950114359976285 0.1950114359976285 0.1950114359976285 
0.1950114359976285 0.1837481885784999 0.1837481885784999 0.1837481885784999 0.1837481885784999 0.1717597710056141 0.1717597710056141 0.1717597710056141 0.1717597710056141 
0.1590934960861444 0.1590934960861444 0.1590934960861444 0.1590934960861444 0.1457993518205273 0.1457993518205273 0.1457993518205273 0.1457993518205273 0.1319298041226624 
0.1319298041226624 0.1319298041226624 0.1319298041226624 0.1175395897609199 0.1175395897609199 0.1175395897609199 0.1175395897609199 0.1026855003371214 0.1026855003371214 
0.1026855003371214 0.1026855003371214 0.08742615815603502 0.08742615815603502 0.08742615815603502 0.08742615815603502 0.0718217848699193 0.0718217848699193 0.0718217848699193 
0.0718217848699193 0.05593396381117425 0.05593396381117425 0.05593396381117425 0.05593396381117425 0.03982539695106392 0.03982539695106392 0.03982539695106392 0.03982539695106392 
0.02355965744368079 0.02355965744368079 0.02355965744368079 0.02355965744368079 0.00720093873175124 0.00720093873175124 0.00720093873175124 0.00720093873175124 -0.009186198795556856 
-0.009186198795556856 -0.009186198795556856 -0.009186198795556856 -0.02553708259299369 -0.02553708259299369 -0.02553708259299369 -0.02553708259299369 -0.04178718319221923 -0.04178718319221923 
-0.04178718319221923 -0.04178718319221923 -0.05787236887013344 -0.05787236887013344 -0.05787236887013344 -0.05787236887013344 -0.07372915874748728 -0.07372915874748728 -0.07372915874748728 
-0.07372915874748728 -0.08929497331891328 -0.08929497331891328 -0.08929497331891328 -0.08929497331891328 -0.1045083814256425 -0.1045083814256425 -0.1045083814256425 -0.1045083814256425 
-0.1193093426962225 -0.1193093426962225 -0.1193093426962225 -0.1193093426962225 -0.1336394444984344 -0.1336394444984344 -0.1336394444984344 -0.1336394444984344 -0.1474421324672657 
-0.1474421324672657 -0.1474421324672657 -0.1474421324672657 -0.1882004000923078 -0.1882004000923078 -0.1882004000923078 -0.1882004000923078 -0.2029449333679076 -0.2029449333679076 
-0.2029449333679076 -0.2029449333679076 -0.2168885357082249 -0.2168885357082249 -0.2168885357082249 -0.2168885357082249 -0.2299761780850486 -0.2299761780850486 -0.2299761780850486 
-0.2299761780850486 -0.2421562095530923 -0.2421562095530923 -0.2421562095530923 -0.2421562095530923 -0.2533805610926788 -0.2533805610926788 -0.2533805610926788 -0.2533805610926788 
-0.2636049353161998 -0.2636049353161998 -0.2636049353161998 -0.2636049353161998 -0.2727889812896672 -0.2727889812896672 -0.2727889812896672 -0.2727889812896672 -0.2808964537794152 
-0.2808964537794152 -0.2808964537794152 -0.2808964537794152 -0.2878953562954787 -0.2878953562954787 -0.2878953562954787 -0.2878953562954787 -0.2937580673671212 -0.2937580673671212 
-0.2937580673671212 -0.2937580673671212 -0.2984614495521609 -0.2984614495521609 -0.2984614495521609 -0.2984614495521609 -0.3019869407498842 -0.3019869407498842 -0.3019869407498842 
-0.3019869407498842 -0.3043206274571776 -0.3043206274571776 -0.3043206274571776 -0.3043206274571776 -0.3054532996787674 -0.3054532996787674 -0.3054532996787674 -0.3054532996787674 
-0.3053804872748637 -0.3053804872748637 -0.3053804872748637 -0.3053804872748637 -0.30410247760276 -0.30410247760276 -0.30410247760276 -0.30410247760276 -0.3016243143827647 
-0.3016243143827647 -0.3016243143827647 -0.3016243143827647 -0.2979557777929424 -0.2979557777929424 -0.2979557777929424 -0.2979557777929424 -0.2931113458712177 -0.2931113458712177 
-0.2931113458712177 -0.2931113458712177 -0.2871101373771755 -0.2871101373771755 -0.2871101373771755 -0.2871101373771755 -0.2799758363390506 -0.2799758363390506 -0.2799758363390506 
-0.2799758363390506 -0.2717365985836882 -0.2717365985836882 -0.2717365985836882 -0.2717365985836882 -0.2624249406183591 -0.2624249406183591 -0.2624249406183591 -0.2624249406183591 
-0.2520776113029605 -0.2520776113029605 -0.2520776113029605 -0.2520776113029605 -0.2407354468190551 -0.2407354468190551 -0.2407354468190551 -0.2407354468190551 -0.2284432095081192 
-0.2284432095081192 -0.2284432095081192 -0.2284432095081192 -0.2152494112150298 -0.2152494112150298 -0.2152494112150298 -0.2152494112150298 -0.2012061218339764 -0.2012061218339764 
-0.2012061218339764 -0.2012061218339764 -0.1863687638123777 -0.1863687638123777 -0.1863687638123777 -0.1863687638123777 -0.1707958934238007 -0.1707958934238007 -0.1707958934238007 
-0.1707958934238007 -0.1545489696731011 -0.1545489696731011 -0.1545489696731011 -0.1545489696731011 -0.1376921117458101 -0.1376921117458101 -0.1376921117458101 -0.1376921117458101 
-0.1202918459590002 -0.1202918459590002 -0.1202918459590002 -0.1202918459590002 -0.1024168432123074 -0.1024168432123074 -0.1024168432123074 -0.1024168432123074 -0.08413764797526044 
-0.08413764797526044 -0.08413764797526044 -0.08413764797526044 -0.0655263998804903 -0.0655263998804903 -0.0655263998804903 -0.0655263998804903 -0.04665654902155633 -0.04665654902155633 
-0.04665654902155633 -0.04665654902155633 -0.02760256607898386 -0.02760256607898386 -0.02760256607898386 -0.02760256607898386 -0.008439648418510646 -0.008439648418510646 -0.008439648418510646 
-0.008439648418510646 0.01075657667856173 0.01075657667856173 0.01075657667856173 0.01075657667856173 0.02991035048169638 0.02991035048169638 0.02991035048169638 0.02991035048169638 
0.04894608179621907 0.04894608179621907 0.04894608179621907 0.04894608179621907 0.06778864528722997 0.06778864528722997 0.06778864528722997 0.06778864528722997 0.08636367796497836 
0.08636367796497836 0.08636367796497836 0.08636367796497836 0.1045978726616102 0.1045978726616102 0.1045978726616102 0.1045978726616102 0.1224192673410689 0.1224192673410689 
0.1224192673410689 0.1224192673410689 0.1397575291003759 0.1397575291003759 0.1397575291003759 0.1397575291003759 0.1565442317414654 0.1565442317414654 0.1565442317414654 
0.1565442317414654 0.1727131258181279 0.1727131258181279 0.1727131258181279 0.1727131258181279 0.1882004000923078 0.1882004000923078 0.1882004000923078 0.1882004000923078 
0.2029449333679077 0.2029449333679077 0.2029449333679077 0.2029449333679077 0.2168885357082248 0.2168885357082248 0.2168885357082248 0.2168885357082248 0.2299761780850486 
0.2299761780850486 0.2299761780850486 0.2299761780850486 0.2421562095530922 0.2421562095530922 0.2421562095530922 0.2421562095530922 0.2533805610926788 0.2533805610926788 
0.2533805610926788 0.2533805610926788 0.2636049353161998 0.2636049353161998 0.2636049353161998 0.2636049353161998 0.272788981289667 0.272788981289667 0.272788981289667 
0.272788981289667 0.2808964537794151 0.2808964537794151 0.2808964537794151 0.2808964537794151 0.2878953562954786 0.2878953562954786 0.2878953562954786 0.2878953562954786 
0.2937580673671212 0.2937580673671212 0.2937580673671212 0.2937580673671212 0.2984614495521608 0.2984614495521608 0.2984614495521608 0.2984614495521608 0.3019869407498841 
0.3019869407498841 0.3019869407498841 0.3019869407498841 0.3043206274571774 0.3043206274571774 0.3043206274571774 0.3043206274571774 0.3054532996787676 0.3054532996787676 
0.3054532996787676 0.3054532996787676 0.3053804872748643 0.3053804872748643 0.3053804872748643 0.3053804872748643 0.3041024776027602 0.3041024776027602 0.3041024776027602 
0.3041024776027602 0.3016243143827649 0.3016243143827649 0.3016243143827649 0.3016243143827649 0.2979557777929421 0.2979557777929421 0.2979557777929421 0.2979557777929421 
0.2931113458712177 0.2931113458712177 0.2931113458712177 0.2931113458712177 0.2871101373771752 0.2871101373771752 0.2871101373771752 0.2871101373771752 0.2799758363390505 
0.2799758363390505 0.2799758363390505 0.2799758363390505 0.2717365985836878 0.2717365985836878 0.2717365985836878 0.2717365985836878 0.262424940618359 0.262424940618359 
0.262424940618359 0.262424940618359 0.2520776113029604 0.2520776113029604 0.2520776113029604 0.2520776113029604 0.2407354468190553 0.2407354468190553 0.2407354468190553 
0.2407354468190553 0.2284432095081192 0.2284432095081192 0.2284432095081192 0.2284432095081192 0.2152494112150296 0.2152494112150296 0.2152494112150296 0.2152494112150296 
0.2012061218339761 0.2012061218339761 0.2012061218339761 0.2012061218339761 0.1863687638123773 0.1863687638123773 0.1863687638123773 0.1863687638123773 0.1707958934238002 
0.1707958934238002 0.1707958934238002 0.1707958934238002 0.1545489696731009 0.1545489696731009 0.1545489696731009 0.1545489696731009 0.13769211174581 0.13769211174581 
0.13769211174581 0.13769211174581 0.1202918459590005 0.1202918459590005 0.1202918459590005 0.1202918459590005 0.1024168432123078 0.1024168432123078 0.1024168432123078 
0.1024168432123078 0.08413764797526103 0.08413764797526103 0.08413764797526103 0.08413764797526103 0.06552639988049036 0.06552639988049036 0.06552639988049036 0.06552639988049036 
0.04665654902155648 0.04665654902155648 0.04665654902155648 0.04665654902155648 0.02760256607898376 0.02760256607898376 0.02760256607898376 0.02760256607898376 0.008439648418510796 
0.008439648418510796 0.008439648418510796 0.008439648418510796 -0.01075657667856217 -0.01075657667856217 -0.01075657667856217 -0.01075657667856217 -0.02991035048169643 -0.02991035048169643 
-0.02991035048169643 -0.02991035048169643 -0.04894608179621893 -0.04894608179621893 -0.04894608179621893 -0.04894608179621893 -0.06778864528722979 -0.06778864528722979 -0.06778864528722979 
-0.06778864528722979 -0.08636367796497776 -0.08636367796497776 -0.08636367796497776 -0.08636367796497776 -0.1045978726616098 -0.1045978726616098 -0.1045978726616098 -0.1045978726616098 
-0.1224192673410688 -0.1224192673410688 -0.1224192673410688 -0.1224192673410688 -0.139757529100376 -0.139757529100376 -0.139757529100376 -0.139757529100376 -0.1565442317414654 
-0.1565442317414654 -0.1565442317414654 -0.1565442317414654 -0.1727131258181279 -0.1727131258181279 -0.1727131258181279 -0.1727131258181279 -0.2149951254868839 -0.2149951254868839 
-0.2149951254868839 -0.2149951254868839 -0.2318392640688932 -0.2318392640688932 -0.2318392640688932 -0.2318392640688932 -0.2477684389929075 -0.2477684389929075 -0.2477684389929075 
-0.2477684389929075 -0.2627197850828492 -0.2627197850828492 -0.2627197850828492 -0.2627197850828492 -0.2766342962063217 -0.2766342962063217 -0.2766342962063217 -0.2766342962063217 
-0.2894570581448562 -0.2894570581448562 -0.2894570581448562 -0.2894570581448562 -0.3011374653152441 -0.3011374653152441 -0.3011374653152441 -0.3011374653152441 -0.311629420486654 
-0.311629420486654 -0.311629420486654 -0.311629420486654 -0.320891516705343 -0.320891516705343 -0.320891516705343 -0.320891516705343 -0.3288872007089849 -0.3288872007089849 
-0.3288872007089849 -0.3288872007089849 -0.335584917185698 -0.335584917185698 -0.335584917185698 -0.335584917185698 -0.3409582333084443 -0.3409582333084443 -0.3409582333084443 
-0.3409582333084443 -0.3449859430533221 -0.3449859430533221 -0.3449859430533221 -0.3449859430533221 -0.3476521508900537 -0.3476521508900537 -0.3476521508900537 -0.3476521508900537 
-0.3489463345143822 -0.3489463345143822 -0.3489463345143822 -0.3489463345143822 -0.3488633863747985 -0.3488633863747985 -0.3488633863747985 -0.3488633863747985 -0.3474036338297141 
-0.3474036338297141 -0.3474036338297141 -0.3474036338297141 -0.3445728378555275 -0.3445728378555275 -0.3445728378555275 -0.3445728378555275 -0.3403821703106802 -0.3403821703106802 
-0.3403821703106802 -0.3403821703106802 -0.3348481698454385 -0.3348481698454385 -0.3348481698454385 -0.3348481698454385 -0.3279926766313942 -0.3279926766313942 -0.3279926766313942 
-0.3279926766313942 -0.3198427461682861 -0.3198427461682861 -0.3198427461682861 -0.3198427461682861 -0.3104305425083032 -0.3104305425083032 -0.3104305425083032 -0.3104305425083032 
-0.2997932113192645 -0.2997932113192645 -0.2997932113192645 -0.2997932113192645 -0.2879727332876389 -0.2879727332876389 -0.2879727332876389 -0.2879727332876389 -0.2750157584399544 
-0.2750157584399544 -0.2750157584399544 -0.2750157584399544 -0.2609734220364561 -0.2609734220364561 -0.2609734220364561 -0.2609734220364561 -0.2459011427635953 -0.2459011427635953 
-0.2459011427635953 -0.2459011427635953 -0.2298584040217929 -0.2298584040217929 -0.2298584040217929 -0.2298584040217929 -0.2129085191716324 -0.2129085191716324 -0.2129085191716324 
-0.2129085191716324 -0.1951183816649513 -0.1951183816649513 -0.1951183816649513 -0.1951183816649513 -0.1765582010469478 -0.1765582010469478 -0.1765582010469478 -0.1765582010469478 
-0.1573012258711815 -0.1573012258711815 -0.1573012258711815 -0.1573012258711815 -0.1374234546209961 -0.1374234546209961 -0.1374234546209961 -0.1374234546209961 -0.117003335778226 
-0.117003335778226 -0.117003335778226 -0.117003335778226 -0.09612145822287863 -0.09612145822287863 -0.09612145822287863 -0.09612145822287863 -0.07486023318564286 -0.07486023318564286 
-0.07486023318564286 -0.07486023318564286 -0.05330356900841048 -0.05330356900841048 -0.05330356900841048 -0.05330356900841048 -0.03153653999638622 -0.03153653999638622 -0.03153653999638622 
-0.03153653999638622 -0.00964505066867115 -0.00964505066867115 -0.00964505066867115 -0.00964505066867115 0.01228450326762886 0.01228450326762886 0.01228450326762886 0.01228450326762886 
0.03416557588178722 0.03416557588178722 0.03416557588178722 0.03416557588178722 0.05591181257670697 0.05591181257670697 0.05591181257670697 0.05591181257670697 0.07743739089106397 
0.07743739089106397 0.07743739089106397 0.07743739089106397 0.09865735920135256 0.09865735920135256 0.09865735920135256 0.09865735920135256 0.1194879719871338 0.1194879719871338 
0.1194879719871338 0.1194879719871338 0.1398470203363434 0.1398470203363434 0.1398470203363434 0.1398470203363434 0.1596541563863118 0.1596541563863118 0.1596541563863118 
0.1596541563863118 0.1788312104200695 0.1788312104200695 0.1788312104200695 0.1788312104200695 0.1973024993665075 0.1973024993665075 0.1973024993665075 0.1973024993665075 
0.2149951254868838 0.2149951254868838 0.2149951254868838 0.2149951254868838 0.2318392640688934 0.2318392640688934 0.2318392640688934 0.2318392640688934 0.2477684389929075 
0.2477684389929075 0.2477684389929075 0.2477684389929075 0.2627197850828493 0.2627197850828493 0.2627197850828493 0.2627197850828493 0.2766342962063217 0.2766342962063217 
0.2766342962063217 0.2766342962063217 0.2894570581448564 0.2894570581448564 0.2894570581448564 0.2894570581448564 0.3011374653152439 0.3011374653152439 0.3011374653152439 
0.3011374653152439 0.3116294204866542 0.3116294204866542 0.3116294204866542 0.3116294204866542 0.3208915167053427 0.3208915167053427 0.3208915167053427 0.3208915167053427 
0.3288872007089847 0.3288872007089847 0.3288872007089847 0.3288872007089847 0.3355849171856978 0.3355849171856978 0.3355849171856978 0.3355849171856978 0.3409582333084443 
0.3409582333084443 0.3409582333084443 0.3409582333084443 0.344985943053322 0.344985943053322 0.344985943053322 0.344985943053322 0.3476521508900539 0.3476521508900539 
0.3476521508900539 0.3476521508900539 0.3489463345143822 0.3489463345143822 0.3489463345143822 0.3489463345143822 0.3488633863747984 0.3488633863747984 0.3488633863747984 
0.3488633863747984 0.3474036338297143 0.3474036338297143 0.3474036338297143 0.3474036338297143 0.3445728378555277 0.3445728378555277 0.3445728378555277 0.3445728378555277 
0.3403821703106804 0.3403821703106804 0.3403821703106804 0.3403821703106804 0.3348481698454389 0.3348481698454389 0.3348481698454389 0.3348481698454389 0.3279926766313943 
0.3279926766313943 0.3279926766313943 0.3279926766313943 0.3198427461682862 0.3198427461682862 0.3198427461682862 0.3198427461682862 0.3104305425083032 0.3104305425083032 
0.3104305425083032 0.3104305425083032 0.2997932113192645 0.2997932113192645 0.2997932113192645 0.2997932113192645 0.2879727332876387 0.2879727332876387 0.2879727332876387 
0.2879727332876387 0.275015758439954 0.275015758439954 0.275015758439954 0.275015758439954 0.260973422036456 0.260973422036456 0.260973422036456 0.260973422036456 
0.2459011427635952 0.2459011427635952 0.2459011427635952 0.2459011427635952 0.2298584040217928 0.2298584040217928 0.2298584040217928 0.2298584040217928 0.212908519171632 
0.212908519171632 0.212908519171632 0.212908519171632 0.1951183816649509 0.1951183816649509 0.1951183816649509 0.1951183816649509 0.1765582010469476 0.1765582010469476 
0.1765582010469476 0.1765582010469476 0.1573012258711816 0.1573012258711816 0.1573012258711816 0.1573012258711816 0.1374234546209963 0.1374234546209963 0.1374234546209963 
0.1374234546209963 0.117003335778226 0.117003335778226 0.117003335778226 0.117003335778226 0.0961214582228784 0.0961214582228784 0.0961214582228784 0.0961214582228784 
0.07486023318564258 0.07486023318564258 0.07486023318564258 0.07486023318564258 0.05330356900841036 0.05330356900841036 0.05330356900841036 0.05330356900841036 0.03153653999638643 
0.03153653999638643 0.03153653999638643 0.03153653999638643 0.009645050668671164 0.009645050668671164 0.009645050668671164 0.009645050668671164 -0.012284503267629 -0.012284503267629 
-0.012284503267629 -0.012284503267629 -0.03416557588178744 -0.03416557588178744 -0.03416557588178744 -0.03416557588178744 -0.05591181257670692 -0.05591181257670692 -0.05591181257670692 
-0.05591181257670692 -0.07743739089106397 -0.07743739089106397 -0.07743739089106397 -0.07743739089106397 -0.09865735920135274 -0.09865735920135274 -0.09865735920135274 -0.09865735920135274 
-0.119487971987134 -0.119487971987134 -0.119487971987134 -0.119487971987134 -0.1398470203363433 -0.1398470203363433 -0.1398470203363433 -0.1398470203363433 -0.1596541563863121 
-0.1596541563863121 -0.1596541563863121 -0.1596541563863121 -0.1788312104200695 -0.1788312104200695 -0.1788312104200695 -0.1788312104200695 -0.1973024993665075 -0.1973024993665075 
-0.1973024993665075 -0.1973024993665075 -0.2409413633430929 -0.2409413633430929 -0.2409413633430929 -0.2409413633430929 -0.2598186311118836 -0.2598186311118836 -0.2598186311118836 
-0.2598186311118836 -0.2776705134435175 -0.2776705134435175 -0.2776705134435175 -0.2776705134435175 -0.2944265571141806 -0.2944265571141806 -0.2944265571141806 -0.2944265571141806 
-0.3100206336746131 -0.3100206336746131 -0.3100206336746131 -0.3100206336746131 -0.324391200428887 -0.324391200428887 -0.324391200428887 -0.324391200428887 -0.3374815433153106 
-0.3374815433153106 -0.3374815433153106 -0.3374815433153106 -0.3492400007309199 -0.3492400007309199 -0.3492400007309199 -0.3492400007309199 -0.3596201674162237 -0.3596201674162237 
-0.3596201674162237 -0.3596201674162237 -0.3685810775955621 -0.3685810775955621 -0.3685810775955621 -0.3685810775955621 -0.376087366650308 -0.376087366650308 -0.376087366650308 
-0.376087366650308 -0.3821094106868593 -0.3821094106868593 -0.3821094106868593 -0.3821094106868593 -0.3866234434486138 -0.3866234434486138 -0.3866234434486138 -0.3866234434486138 
-0.3896116501105266 -0.3896116501105266 -0.3896116501105266 -0.3896116501105266 -0.3910622375860849 -0.3910622375860849 -0.3910622375860849 -0.3910622375860849 -0.3909694810692328 
-0.3909694810692328 -0.3909694810692328 -0.3909694810692328 -0.389333746627566 -0.389333746627566 -0.389333746627566 -0.389333746627566 -0.3861614897576298 -0.3861614897576298 
-0.3861614897576298 -0.3861614897576298 -0.3814652299080237 -0.3814652299080237 -0.3814652299080237 -0.3814652299080237 -0.3752635010708568 -0.3752635010708568 -0.3752635010708568 
-0.3752635010708568 -0.3675807786365491 -0.3675807786365491 -0.3675807786365491 -0.3675807786365491 -0.3584473828006468 -0.3584473828006468 -0.3584473828006468 -0.3584473828006468 
-0.3478993589038626 -0.3478993589038626 -0.3478993589038626 -0.3478993589038626 -0.3359783351775831 -0.3359783351775831 -0.3359783351775831 -0.3359783351775831 -0.3227313584562584 
-0.3227313584562584 -0.3227313584562584 -0.3227313584562584 -0.3082107085050397 -0.3082107085050397 -0.3082107085050397 -0.3082107085050397 -0.2924736916954307 -0.2924736916954307 
-0.2924736916954307 -0.2924736916954307 -0.2755824148432193 -0.2755824148432193 -0.2755824148432193 -0.2755824148432193 -0.2576035401012512 -0.2576035401012512 -0.2576035401012512 
-0.2576035401012512 -0.2386080218743669 -0.2386080218743669 -0.2386080218743669 -0.2386080218743669 -0.2186708267947799 -0.2186708267947799 -0.2186708267947799 -0.2186708267947799 
-0.1978706378630316 -0.1978706378630316 -0.1978706378630316 -0.1978706378630316 -0.1762895439221339 -0.1762895439221339 -0.1762895439221339 -0.1762895439221339 -0.1540127156904071 
-0.1540127156904071 -0.1540127156904071 -0.1540127156904071 -0.1311280696315673 -0.1311280696315673 -0.1311280696315673 -0.1311280696315673 -0.1077259209886081 -0.1077259209886081 
-0.1077259209886081 -0.1077259209886081 -0.0838986273507988 -0.0838986273507988 -0.0838986273507988 -0.0838986273507988 -0.05974022416047287 -0.05974022416047287 -0.05974022416047287 
-0.05974022416047287 -0.03534605359809757 -0.03534605359809757 -0.03534605359809757 -0.03534605359809757 -0.01081238831024668 -0.01081238831024668 -0.01081238831024668 -0.01081238831024668 
0.01376394853455443 0.01376394853455443 0.01376394853455443 0.01376394853455443 0.03828596536263952 0.03828596536263952 0.03828596536263952 0.03828596536263952 0.06265688497663195 
0.06265688497663195 0.06265688497663195 0.06265688497663195 0.08678052649082965 0.08678052649082965 0.08678052649082965 0.08678052649082965 0.1105616849132196 0.1105616849132196 
0.1105616849132196 0.1105616849132196 0.1339065068760864 0.1339065068760864 0.1339065068760864 0.1339065068760864 0.1567228610323767 0.1567228610323767 0.1567228610323767 
0.1567228610323767 0.1789207016560368 0.1789207016560368 0.1789207016560368 0.1789207016560368 0.2004124240113538 0.2004124240113538 0.2004124240113538 0.2004124240113538 
0.2211132100888252 0.2211132100888252 0.2211132100888252 0.2211132100888252 0.2409413633430928 0.2409413633430928 0.2409413633430928 0.2409413633430928 0.2598186311118837 
0.2598186311118837 0.2598186311118837 0.2598186311118837 0.2776705134435178 0.2776705134435178 0.2776705134435178 0.2776705134435178 0.2944265571141809 0.2944265571141809 
0.2944265571141809 0.2944265571141809 0.3100206336746133 0.3100206336746133 0.3100206336746133 0.3100206336746133 0.3243912004288872 0.3243912004288872 0.3243912004288872 
0.3243912004288872 0.3374815433153104 0.3374815433153104 0.3374815433153104 0.3374815433153104 0.34924000073092 0.34924000073092 0.34924000073092 0.34924000073092 
0.3596201674162237 0.3596201674162237 0.3596201674162237 0.3596201674162237 0.368581077595562 0.368581077595562 0.368581077595562 0.368581077595562 0.3760873666503078 
0.3760873666503078 0.3760873666503078 0.3760873666503078 0.3821094106868588 0.3821094106868588 0.3821094106868588 0.3821094106868588 0.3866234434486137 0.3866234434486137 
0.3866234434486137 0.3866234434486137 0.3896116501105266 0.3896116501105266 0.3896116501105266 0.3896116501105266 0.3910622375860847 0.3910622375860847 0.3910622375860847 
0.3910622375860847 0.3909694810692328 0.3909694810692328 0.3909694810692328 0.3909694810692328 0.389333746627566 0.389333746627566 0.389333746627566 0.389333746627566 
0.3861614897576301 0.3861614897576301 0.3861614897576301 0.3861614897576301 0.3814652299080242 0.3814652299080242 0.3814652299080242 0.3814652299080242 0.375263501070857 
0.375263501070857 0.375263501070857 0.375263501070857 0.3675807786365491 0.3675807786365491 0.3675807786365491 0.3675807786365491 0.3584473828006468 0.3584473828006468 
0.3584473828006468 0.3584473828006468 0.3478993589038625 0.3478993589038625 0.3478993589038625 0.3478993589038625 0.3359783351775831 0.3359783351775831 0.3359783351775831 
0.3359783351775831 0.3227313584562584 0.3227313584562584 0.3227313584562584 0.3227313584562584 0.3082107085050399 0.3082107085050399 0.3082107085050399 0.3082107085050399 