Title = Result/Post/Linear_Advection_2D/Sine_Wave_2D/Quad100/
FileType = Solution
Variables = q
Zone T = Result/Post/Linear_Advection_2D/Sine_Wave_2D/Quad100/
ZoneType = FETriangle
Nodes = 40000
Elements = 20000
DataPacking = Block
StrandID = 1
SolutionTime = 0
0.0009866357858642199 0.0009866357858642199 0.0009866357858642199 0.0009866357858642199 0.002956013556896868 0.002956013556896868 0.002956013556896868 0.002956013556896868 0.00491372529289458 0.00491372529289458 
0.00491372529289458 0.00491372529289458 0.006852044800028787 0.006852044800028787 0.006852044800028787 0.006852044800028787 0.008763322416738771 0.008763322416738771 0.008763322416738771 
0.008763322416738771 0.01064001520345107 0.01064001520345107 0.01064001520345107 0.01064001520345107 0.01247471671111593 0.01247471671111593 0.01247471671111593 0.01247471671111593 
0.01426018621107796 0.01426018621107796 0.01426018621107796 0.01426018621107796 0.01598937727092425 0.01598937727092425 0.01598937727092425 0.01598937727092425 0.01765546556353382 
0.01765546556353382 0.01765546556353382 0.01765546556353382 0.01925187579957909 0.01925187579957909 0.01925187579957909 0.01925187579957909 0.02077230767718885 0.02077230767718885 
0.02077230767718885 0.02077230767718885 0.02221076074636143 0.02221076074636143 0.02221076074636143 0.02221076074636143 0.02356155808999949 0.02356155808999949 0.02356155808999949 
0.02356155808999949 0.02481936872810829 0.02481936872810829 0.02481936872810829 0.02481936872810829 0.02597922865673825 0.02597922865673825 0.02597922865673825 0.02597922865673825 
0.02703656043864066 0.02703656043864066 0.02703656043864066 0.02703656043864066 0.0279871912683213 0.0279871912683213 0.0279871912683213 0.0279871912683213 0.02882736944019733 
0.02882736944019733 0.02882736944019733 0.02882736944019733 0.02955377915486526 0.02955377915486526 0.02955377915486526 0.02955377915486526 0.03016355360504631 0.03016355360504631 
0.03016355360504631 0.03016355360504631 0.03065428628956508 0.03065428628956508 0.03065428628956508 0.03065428628956508 0.03102404051071019 0.03102404051071019 0.03102404051071019 
0.03102404051071019 0.03127135701749544 0.03127135701749544 0.03127135701749544 0.03127135701749544 0.03139525976465669 0.03139525976465669 0.03139525976465669 0.03139525976465669 
0.03139525976465669 0.03139525976465669 0.03139525976465669 0.03139525976465669 0.03127135701749544 0.03127135701749544 0.03127135701749544 0.03127135701749544 0.03102404051071019 
0.03102404051071019 0.03102404051071019 0.03102404051071019 0.03065428628956508 0.03065428628956508 0.03065428628956508 0.03065428628956508 0.03016355360504632 0.03016355360504632 
0.03016355360504632 0.03016355360504632 0.02955377915486528 0.02955377915486528 0.02955377915486528 0.02955377915486528 0.02882736944019735 0.02882736944019735 0.02882736944019735 
0.02882736944019735 0.02798719126832132 0.02798719126832132 0.02798719126832132 0.02798719126832132 0.02703656043864068 0.02703656043864068 0.02703656043864068 0.02703656043864068 
0.02597922865673827 0.02597922865673827 0.02597922865673827 0.02597922865673827 0.0248193687281083 0.0248193687281083 0.0248193687281083 0.0248193687281083 0.02356155808999948 
0.02356155808999948 0.02356155808999948 0.02356155808999948 0.02221076074636142 0.02221076074636142 0.02221076074636142 0.02221076074636142 0.02077230767718885 0.02077230767718885 
0.02077230767718885 0.02077230767718885 0.01925187579957909 0.01925187579957909 0.01925187579957909 0.01925187579957909 0.01765546556353382 0.01765546556353382 0.01765546556353382 
0.01765546556353382 0.01598937727092426 0.01598937727092426 0.01598937727092426 0.01598937727092426 0.01426018621107799 0.01426018621107799 0.01426018621107799 0.01426018621107799 
0.01247471671111596 0.01247471671111596 0.01247471671111596 0.01247471671111596 0.0106400152034511 0.0106400152034511 0.0106400152034511 0.0106400152034511 0.008763322416738769 
0.008763322416738769 0.008763322416738769 0.008763322416738769 0.006852044800028787 0.006852044800028787 0.006852044800028787 0.006852044800028787 0.004913725292894578 0.004913725292894578 
0.004913725292894578 0.004913725292894578 0.002956013556896866 0.002956013556896866 0.002956013556896866 0.002956013556896866 0.0009866357858642173 0.0009866357858642173 0.0009866357858642173 
0.0009866357858642173 -0.0009866357858642095 -0.0009866357858642095 -0.0009866357858642095 -0.0009866357858642095 -0.002956013556896886 -0.002956013556896886 -0.002956013556896886 -0.002956013556896886 
-0.004913725292894598 -0.004913725292894598 -0.004913725292894598 -0.004913725292894598 -0.006852044800028806 -0.006852044800028806 -0.006852044800028806 -0.006852044800028806 -0.008763322416738802 
-0.008763322416738802 -0.008763322416738802 -0.008763322416738802 -0.01064001520345109 -0.01064001520345109 -0.01064001520345109 -0.01064001520345109 -0.01247471671111594 -0.01247471671111594 
-0.01247471671111594 -0.01247471671111594 -0.01426018621107798 -0.01426018621107798 -0.01426018621107798 -0.01426018621107798 -0.01598937727092424 -0.01598937727092424 -0.01598937727092424 
-0.01598937727092424 -0.01765546556353382 -0.01765546556353382 -0.01765546556353382 -0.01765546556353382 -0.01925187579957909 -0.01925187579957909 -0.01925187579957909 -0.01925187579957909 
-0.02077230767718885 -0.02077230767718885 -0.02077230767718885 -0.02077230767718885 -0.02221076074636142 -0.02221076074636142 -0.02221076074636142 -0.02221076074636142 -0.02356155808999948 
-0.02356155808999948 -0.02356155808999948 -0.02356155808999948 -0.02481936872810829 -0.02481936872810829 -0.02481936872810829 -0.02481936872810829 -0.02597922865673823 -0.02597922865673823 
-0.02597922865673823 -0.02597922865673823 -0.02703656043864065 -0.02703656043864065 -0.02703656043864065 -0.02703656043864065 -0.02798719126832129 -0.02798719126832129 -0.02798719126832129 
-0.02798719126832129 -0.02882736944019733 -0.02882736944019733 -0.02882736944019733 -0.02882736944019733 -0.02955377915486525 -0.02955377915486525 -0.02955377915486525 -0.02955377915486525 
-0.03016355360504631 -0.03016355360504631 -0.03016355360504631 -0.03016355360504631 -0.03065428628956508 -0.03065428628956508 -0.03065428628956508 -0.03065428628956508 -0.0310240405107102 
-0.0310240405107102 -0.0310240405107102 -0.0310240405107102 -0.03127135701749544 -0.03127135701749544 -0.03127135701749544 -0.03127135701749544 -0.03139525976465669 -0.03139525976465669 
-0.03139525976465669 -0.03139525976465669 -0.03139525976465669 -0.03139525976465669 -0.03139525976465669 -0.03139525976465669 -0.03127135701749544 -0.03127135701749544 -0.03127135701749544 
-0.03127135701749544 -0.03102404051071019 -0.03102404051071019 -0.03102404051071019 -0.03102404051071019 -0.03065428628956508 -0.03065428628956508 -0.03065428628956508 -0.03065428628956508 
-0.03016355360504631 -0.03016355360504631 -0.03016355360504631 -0.03016355360504631 -0.02955377915486527 -0.02955377915486527 -0.02955377915486527 -0.02955377915486527 -0.02882736944019734 
-0.02882736944019734 -0.02882736944019734 -0.02882736944019734 -0.02798719126832131 -0.02798719126832131 -0.02798719126832131 -0.02798719126832131 -0.02703656043864068 -0.02703656043864068 
-0.02703656043864068 -0.02703656043864068 -0.02597922865673825 -0.02597922865673825 -0.02597922865673825 -0.02597922865673825 -0.0248193687281083 -0.0248193687281083 -0.0248193687281083 
-0.0248193687281083 -0.02356155808999948 -0.02356155808999948 -0.02356155808999948 -0.02356155808999948 -0.02221076074636143 -0.02221076074636143 -0.02221076074636143 -0.02221076074636143 
-0.02077230767718886 -0.02077230767718886 -0.02077230767718886 -0.02077230767718886 -0.0192518757995791 -0.0192518757995791 -0.0192518757995791 -0.0192518757995791 -0.01765546556353384 
-0.01765546556353384 -0.01765546556353384 -0.01765546556353384 -0.01598937727092425 -0.01598937727092425 -0.01598937727092425 -0.01598937727092425 -0.01426018621107798 -0.01426018621107798 
-0.01426018621107798 -0.01426018621107798 -0.01247471671111593 -0.01247471671111593 -0.01247471671111593 -0.01247471671111593 -0.01064001520345109 -0.01064001520345109 -0.01064001520345109 
-0.01064001520345109 -0.008763322416738759 -0.008763322416738759 -0.008763322416738759 -0.008763322416738759 -0.006852044800028804 -0.006852044800028804 -0.006852044800028804 -0.006852044800028804 
-0.004913725292894609 -0.004913725292894609 -0.004913725292894609 -0.004913725292894609 -0.002956013556896884 -0.002956013556896884 -0.002956013556896884 -0.002956013556896884 -0.0009866357858641932 
-0.0009866357858641932 -0.0009866357858641932 -0.0009866357858641932 0.002956013556896868 0.002956013556896868 0.002956013556896868 0.002956013556896868 0.008856374635655669 0.008856374635655669 
0.008856374635655669 0.008856374635655669 0.01472178364982024 0.01472178364982024 0.01472178364982024 0.01472178364982024 0.02052909250966215 0.02052909250966215 0.02052909250966215 
0.02052909250966215 0.02625538242021863 0.02625538242021863 0.02625538242021863 0.02625538242021863 0.03187805433130576 0.03187805433130576 0.03187805433130576 0.03187805433130576 
0.03737491812564496 0.03737491812564496 0.03737491812564496 0.03737491812564496 0.04272428019311814 0.04272428019311814 0.04272428019311814 0.04272428019311814 0.04790502904553603 
0.04790502904553603 0.04790502904553603 0.04790502904553603 0.05289671863403717 0.05289671863403717 0.05289671863403717 0.05289671863403717 0.05767964904030176 0.05767964904030176 
0.05767964904030176 0.05767964904030176 0.06223494422312936 0.06223494422312936 0.06223494422312936 0.06223494422312936 0.06654462651354977 0.06654462651354977 0.06654462651354977 
0.06654462651354977 0.07059168756446921 0.07059168756446921 0.07059168756446921 0.07059168756446921 0.07436015547484602 0.07436015547484602 0.07436015547484602 0.07436015547484602 
0.07783515782348721 0.07783515782348721 0.07783515782348721 0.07783515782348721 0.08100298036370021 0.08100298036370021 0.08100298036370021 0.08100298036370021 0.0838511211471593 
0.0838511211471593 0.0838511211471593 0.0838511211471593 0.08636833986338388 0.08636833986338388 0.08636833986338388 0.08636833986338388 0.0885447022001089 0.0885447022001089 
0.0885447022001089 0.0885447022001089 0.09037161904947666 0.09037161904947666 0.09037161904947666 0.09037161904947666 0.09184188040532157 0.09184188040532157 0.09184188040532157 
0.09184188040532157 0.0929496838177707 0.0929496838177707 0.0929496838177707 0.0929496838177707 0.0936906572928623 0.0936906572928623 0.0936906572928623 0.0936906572928623 
0.09406187654680881 0.09406187654680881 0.09406187654680881 0.09406187654680881 0.09406187654680881 0.09406187654680881 0.09406187654680881 0.09406187654680881 0.0936906572928623 
0.0936906572928623 0.0936906572928623 0.0936906572928623 0.09294968381777069 0.09294968381777069 0.09294968381777069 0.09294968381777069 0.09184188040532158 0.09184188040532158 
0.09184188040532158 0.09184188040532158 0.09037161904947667 0.09037161904947667 0.09037161904947667 0.09037161904947667 0.08854470220010895 0.08854470220010895 0.08854470220010895 
0.08854470220010895 0.08636833986338392 0.08636833986338392 0.08636833986338392 0.08636833986338392 0.08385112114715933 0.08385112114715933 0.08385112114715933 0.08385112114715933 
0.08100298036370025 0.08100298036370025 0.08100298036370025 0.08100298036370025 0.07783515782348724 0.07783515782348724 0.07783515782348724 0.07783515782348724 0.07436015547484603 
0.07436015547484603 0.07436015547484603 0.07436015547484603 0.07059168756446919 0.07059168756446919 0.07059168756446919 0.07059168756446919 0.0665446265135498 0.0665446265135498 
0.0665446265135498 0.0665446265135498 0.06223494422312936 0.06223494422312936 0.06223494422312936 0.06223494422312936 0.05767964904030176 0.05767964904030176 0.05767964904030176 
0.05767964904030176 0.05289671863403717 0.05289671863403717 0.05289671863403717 0.05289671863403717 0.04790502904553606 0.04790502904553606 0.04790502904553606 0.04790502904553606 
0.04272428019311821 0.04272428019311821 0.04272428019311821 0.04272428019311821 0.03737491812564503 0.03737491812564503 0.03737491812564503 0.03737491812564503 0.03187805433130583 
0.03187805433130583 0.03187805433130583 0.03187805433130583 0.02625538242021862 0.02625538242021862 0.02625538242021862 0.02625538242021862 0.02052909250966211 0.02052909250966211 
0.02052909250966211 0.02052909250966211 0.01472178364982023 0.01472178364982023 0.01472178364982023 0.01472178364982023 0.008856374635655662 0.008856374635655662 0.008856374635655662 
0.008856374635655662 0.00295601355689686 0.00295601355689686 0.00295601355689686 0.00295601355689686 -0.002956013556896837 -0.002956013556896837 -0.002956013556896837 -0.002956013556896837 
-0.008856374635655723 -0.008856374635655723 -0.008856374635655723 -0.008856374635655723 -0.01472178364982021 -0.01472178364982021 -0.01472178364982021 -0.01472178364982021 -0.02052909250966208 
-0.02052909250966208 -0.02052909250966208 -0.02052909250966208 -0.0262553824202186 -0.0262553824202186 -0.0262553824202186 -0.0262553824202186 -0.03187805433130581 -0.03187805433130581 
-0.03187805433130581 -0.03187805433130581 -0.03737491812564501 -0.03737491812564501 -0.03737491812564501 -0.03737491812564501 -0.04272428019311818 -0.04272428019311818 -0.04272428019311818 
-0.04272428019311818 -0.04790502904553601 -0.04790502904553601 -0.04790502904553601 -0.04790502904553601 -0.05289671863403714 -0.05289671863403714 -0.05289671863403714 -0.05289671863403714 
-0.05767964904030175 -0.05767964904030175 -0.05767964904030175 -0.05767964904030175 -0.06223494422312936 -0.06223494422312936 -0.06223494422312936 -0.06223494422312936 -0.06654462651354975 
-0.06654462651354975 -0.06654462651354975 -0.06654462651354975 -0.07059168756446914 -0.07059168756446914 -0.07059168756446914 -0.07059168756446914 -0.07436015547484598 -0.07436015547484598 
-0.07436015547484598 -0.07436015547484598 -0.0778351578234872 -0.0778351578234872 -0.0778351578234872 -0.0778351578234872 -0.08100298036370024 -0.08100298036370024 -0.08100298036370024 
-0.08100298036370024 -0.08385112114715931 -0.08385112114715931 -0.08385112114715931 -0.08385112114715931 -0.08636833986338389 -0.08636833986338389 -0.08636833986338389 -0.08636833986338389 
-0.08854470220010889 -0.08854470220010889 -0.08854470220010889 -0.08854470220010889 -0.09037161904947667 -0.09037161904947667 -0.09037161904947667 -0.09037161904947667 -0.09184188040532158 
-0.09184188040532158 -0.09184188040532158 -0.09184188040532158 -0.09294968381777072 -0.09294968381777072 -0.09294968381777072 -0.09294968381777072 -0.0936906572928623 -0.0936906572928623 
-0.0936906572928623 -0.0936906572928623 -0.09406187654680881 -0.09406187654680881 -0.09406187654680881 -0.09406187654680881 -0.0940618765468088 -0.0940618765468088 -0.0940618765468088 
-0.0940618765468088 -0.09369065729286231 -0.09369065729286231 -0.09369065729286231 -0.09369065729286231 -0.0929496838177707 -0.0929496838177707 -0.0929496838177707 -0.0929496838177707 
-0.09184188040532157 -0.09184188040532157 -0.09184188040532157 -0.09184188040532157 -0.09037161904947666 -0.09037161904947666 -0.09037161904947666 -0.09037161904947666 -0.08854470220010893 
-0.08854470220010893 -0.08854470220010893 -0.08854470220010893 -0.08636833986338391 -0.08636833986338391 -0.08636833986338391 -0.08636833986338391 -0.08385112114715934 -0.08385112114715934 
-0.08385112114715934 -0.08385112114715934 -0.08100298036370025 -0.08100298036370025 -0.08100298036370025 -0.08100298036370025 -0.07783515782348725 -0.07783515782348725 -0.07783515782348725 
-0.07783515782348725 -0.07436015547484609 -0.07436015547484609 -0.07436015547484609 -0.07436015547484609 -0.07059168756446924 -0.07059168756446924 -0.07059168756446924 -0.07059168756446924 
-0.06654462651354977 -0.06654462651354977 -0.06654462651354977 -0.06654462651354977 -0.0622349442231294 -0.0622349442231294 -0.0622349442231294 -0.0622349442231294 -0.05767964904030178 
-0.05767964904030178 -0.05767964904030178 -0.05767964904030178 -0.05289671863403721 -0.05289671863403721 -0.05289671863403721 -0.05289671863403721 -0.04790502904553597 -0.04790502904553597 
-0.04790502904553597 -0.04790502904553597 -0.04272428019311818 -0.04272428019311818 -0.04272428019311818 -0.04272428019311818 -0.03737491812564511 -0.03737491812564511 -0.03737491812564511 
-0.03737491812564511 -0.03187805433130587 -0.03187805433130587 -0.03187805433130587 -0.03187805433130587 -0.02625538242021868 -0.02625538242021868 -0.02625538242021868 -0.02625538242021868 
-0.0205290925096622 -0.0205290925096622 -0.0205290925096622 -0.0205290925096622 -0.01472178364982016 -0.01472178364982016 -0.01472178364982016 -0.01472178364982016 -0.008856374635655714 
-0.008856374635655714 -0.008856374635655714 -0.008856374635655714 -0.002956013556896788 -0.002956013556896788 -0.002956013556896788 -0.002956013556896788 0.004913725292894579 0.004913725292894579 
0.004913725292894579 0.004913725292894579 0.01472178364982024 0.01472178364982024 0.01472178364982024 0.01472178364982024 0.02447174185242324 0.02447174185242324 0.02447174185242324 
0.02447174185242324 0.03412512127001011 0.03412512127001011 0.03412512127001011 0.03412512127001011 0.04364382442422914 0.04364382442422914 0.04364382442422914 0.04364382442422914 
0.05299028534241249 0.05299028534241249 0.05299028534241249 0.05299028534241249 0.06212761781330797 0.06212761781330797 0.06212761781330797 0.06212761781330797 0.07101976096010303 
0.07101976096010303 0.07101976096010303 0.07101976096010303 0.07963162155623106 0.07963162155623106 0.07963162155623106 0.07963162155623106 0.08792921252230398 0.08792921252230398 
0.08792921252230398 0.08792921252230398 0.09587978705758744 0.09587978705758744 0.09587978705758744 0.09587978705758744 0.1034519678766627 0.1034519678766627 0.1034519678766627 
0.1034519678766627 0.1106158710412372 0.1106158710412372 0.1106158710412372 0.1106158710412372 0.1173432238983963 0.1173432238983963 0.1173432238983963 0.1173432238983963 
0.1236074766598481 0.1236074766598481 0.1236074766598481 0.1236074766598481 0.129383907181808 0.129383907181808 0.129383907181808 0.129383907181808 0.1346497185320059 
0.1346497185320059 0.1346497185320059 0.1346497185320059 0.1393841289587628 0.1393841289587628 0.1393841289587628 0.1393841289587628 0.1435684539070709 0.1435684539070709 
0.1435684539070709 0.1435684539070709 0.1471861797579953 0.1471861797579953 0.1471861797579953 0.1471861797579953 0.1502230290003842 0.1502230290003842 0.1502230290003842 
0.1502230290003842 0.1526670165776823 0.1526670165776823 0.1526670165776823 0.1526670165776823 0.1545084971874737 0.1545084971874737 0.1545084971874737 0.1545084971874737 
0.1557402033470841 0.1557402033470841 0.1557402033470841 0.1557402033470841 0.1563572740750145 0.1563572740750145 0.1563572740750145 0.1563572740750145 0.1563572740750145 
0.1563572740750145 0.1563572740750145 0.1563572740750145 0.1557402033470841 0.1557402033470841 0.1557402033470841 0.1557402033470841 0.1545084971874737 0.1545084971874737 
0.1545084971874737 0.1545084971874737 0.1526670165776823 0.1526670165776823 0.1526670165776823 0.1526670165776823 0.1502230290003842 0.1502230290003842 0.1502230290003842 
0.1502230290003842 0.1471861797579954 0.1471861797579954 0.1471861797579954 0.1471861797579954 0.1435684539070709 0.1435684539070709 0.1435684539070709 0.1435684539070709 
0.1393841289587628 0.1393841289587628 0.1393841289587628 0.1393841289587628 0.1346497185320058 0.1346497185320058 0.1346497185320058 0.1346497185320058 0.129383907181808 
0.129383907181808 0.129383907181808 0.129383907181808 0.1236074766598481 0.1236074766598481 0.1236074766598481 0.1236074766598481 0.1173432238983963 0.1173432238983963 
0.1173432238983963 0.1173432238983963 0.1106158710412372 0.1106158710412372 0.1106158710412372 0.1106158710412372 0.1034519678766627 0.1034519678766627 0.1034519678766627 
0.1034519678766627 0.09587978705758744 0.09587978705758744 0.09587978705758744 0.09587978705758744 0.08792921252230398 0.08792921252230398 0.08792921252230398 0.08792921252230398 
0.07963162155623106 0.07963162155623106 0.07963162155623106 0.07963162155623106 0.07101976096010315 0.07101976096010315 0.07101976096010315 0.07101976096010315 0.06212761781330809 
0.06212761781330809 0.06212761781330809 0.06212761781330809 0.0529902853424126 0.0529902853424126 0.0529902853424126 0.0529902853424126 0.0436438244242292 0.0436438244242292 
0.0436438244242292 0.0436438244242292 0.03412512127001011 0.03412512127001011 0.03412512127001011 0.03412512127001011 0.02447174185242323 0.02447174185242323 0.02447174185242323 
0.02447174185242323 0.01472178364982023 0.01472178364982023 0.01472178364982023 0.01472178364982023 0.004913725292894566 0.004913725292894566 0.004913725292894566 0.004913725292894566 
-0.004913725292894528 -0.004913725292894528 -0.004913725292894528 -0.004913725292894528 -0.01472178364982033 -0.01472178364982033 -0.01472178364982033 -0.01472178364982033 -0.02447174185242319 
-0.02447174185242319 -0.02447174185242319 -0.02447174185242319 -0.03412512127001 -0.03412512127001 -0.03412512127001 -0.03412512127001 -0.04364382442422909 -0.04364382442422909 
-0.04364382442422909 -0.04364382442422909 -0.0529902853424125 -0.0529902853424125 -0.0529902853424125 -0.0529902853424125 -0.06212761781330792 -0.06212761781330792 -0.06212761781330792 
-0.06212761781330792 -0.07101976096010312 -0.07101976096010312 -0.07101976096010312 -0.07101976096010312 -0.07963162155623102 -0.07963162155623102 -0.07963162155623102 -0.07963162155623102 
-0.08792921252230394 -0.08792921252230394 -0.08792921252230394 -0.08792921252230394 -0.09587978705758742 -0.09587978705758742 -0.09587978705758742 -0.09587978705758742 -0.1034519678766627 
-0.1034519678766627 -0.1034519678766627 -0.1034519678766627 -0.1106158710412371 -0.1106158710412371 -0.1106158710412371 -0.1106158710412371 -0.1173432238983962 -0.1173432238983962 
-0.1173432238983962 -0.1173432238983962 -0.1236074766598481 -0.1236074766598481 -0.1236074766598481 -0.1236074766598481 -0.129383907181808 -0.129383907181808 -0.129383907181808 
-0.129383907181808 -0.1346497185320059 -0.1346497185320059 -0.1346497185320059 -0.1346497185320059 -0.1393841289587628 -0.1393841289587628 -0.1393841289587628 -0.1393841289587628 
-0.1435684539070708 -0.1435684539070708 -0.1435684539070708 -0.1435684539070708 -0.1471861797579953 -0.1471861797579953 -0.1471861797579953 -0.1471861797579953 -0.1502230290003842 
-0.1502230290003842 -0.1502230290003842 -0.1502230290003842 -0.1526670165776823 -0.1526670165776823 -0.1526670165776823 -0.1526670165776823 -0.1545084971874737 -0.1545084971874737 
-0.1545084971874737 -0.1545084971874737 -0.1557402033470841 -0.1557402033470841 -0.1557402033470841 -0.1557402033470841 -0.1563572740750144 -0.1563572740750144 -0.1563572740750144 
-0.1563572740750144 -0.1563572740750145 -0.1563572740750145 -0.1563572740750145 -0.1563572740750145 -0.1557402033470841 -0.1557402033470841 -0.1557402033470841 -0.1557402033470841 
-0.1545084971874737 -0.1545084971874737 -0.1545084971874737 -0.1545084971874737 -0.1526670165776823 -0.1526670165776823 -0.1526670165776823 -0.1526670165776823 -0.1502230290003842 
-0.1502230290003842 -0.1502230290003842 -0.1502230290003842 -0.1471861797579953 -0.1471861797579953 -0.1471861797579953 -0.1471861797579953 -0.1435684539070709 -0.1435684539070709 
-0.1435684539070709 -0.1435684539070709 -0.1393841289587629 -0.1393841289587629 -0.1393841289587629 -0.1393841289587629 -0.134649718532006 -0.134649718532006 -0.134649718532006 
-0.134649718532006 -0.1293839071818081 -0.1293839071818081 -0.1293839071818081 -0.1293839071818081 -0.1236074766598482 -0.1236074766598482 -0.1236074766598482 -0.1236074766598482 
-0.1173432238983963 -0.1173432238983963 -0.1173432238983963 -0.1173432238983963 -0.1106158710412372 -0.1106158710412372 -0.1106158710412372 -0.1106158710412372 -0.1034519678766627 
-0.1034519678766627 -0.1034519678766627 -0.1034519678766627 -0.09587978705758746 -0.09587978705758746 -0.09587978705758746 -0.09587978705758746 -0.08792921252230405 -0.08792921252230405 
-0.08792921252230405 -0.08792921252230405 -0.07963162155623107 -0.07963162155623107 -0.07963162155623107 -0.07963162155623107 -0.0710197609601031 -0.0710197609601031 -0.0710197609601031 
-0.0710197609601031 -0.06212761781330823 -0.06212761781330823 -0.06212761781330823 -0.06212761781330823 -0.05299028534241269 -0.05299028534241269 -0.05299028534241269 -0.05299028534241269 
-0.04364382442422934 -0.04364382442422934 -0.04364382442422934 -0.04364382442422934 -0.0341251212700102 -0.0341251212700102 -0.0341251212700102 -0.0341251212700102 -0.02447174185242311 
-0.02447174185242311 -0.02447174185242311 -0.02447174185242311 -0.01472178364982018 -0.01472178364982018 -0.01472178364982018 -0.01472178364982018 -0.004913725292894446 -0.004913725292894446 
-0.004913725292894446 -0.004913725292894446 0.006852044800028787 0.006852044800028787 0.006852044800028787 0.006852044800028787 0.02052909250966215 0.02052909250966215 0.02052909250966215 
0.02052909250966215 0.03412512127001011 0.03412512127001011 0.03412512127001011 0.03412512127001011 0.04758647376699028 0.04758647376699028 0.04758647376699028 0.04758647376699028 
0.06086002419220397 0.06086002419220397 0.06086002419220397 0.06086002419220397 0.07389338790623129 0.07389338790623129 0.07389338790623129 0.07389338790623129 0.08663512817687057 
0.08663512817687057 0.08663512817687057 0.08663512817687057 0.0990349591764209 0.0990349591764209 0.0990349591764209 0.0990349591764209 0.111043944436871 0.111043944436871 
0.111043944436871 0.111043944436871 0.1226146899797813 0.1226146899797813 0.1226146899797813 0.1226146899797813 0.1337015313586649 0.1337015313586649 0.1337015313586649 
0.1337015313586649 0.1442607138756952 0.1442607138756952 0.1442607138756952 0.1442607138756952 0.1542505652615092 0.1542505652615092 0.1542505652615092 0.1542505652615092 
0.1636316601366161 0.1636316601366161 0.1636316601366161 0.1636316601366161 0.1723669756053583 0.1723669756053583 0.1723669756053583 0.1723669756053583 0.1804220373683668 
0.1804220373683668 0.1804220373683668 0.1804220373683668 0.1877650557768706 0.1877650557768706 0.1877650557768706 0.1877650557768706 0.1943670512919174 0.1943670512919174 
0.1943670512919174 0.1943670512919174 0.2002019688533742 0.2002019688533742 0.2002019688533742 0.2002019688533742 0.2052467807073462 0.2052467807073462 0.2052467807073462 
0.2052467807073462 0.209481577286201 0.209481577286201 0.209481577286201 0.209481577286201 0.2128896457825363 0.2128896457825363 0.2128896457825363 0.2128896457825363 
0.2154575361069957 0.2154575361069957 0.2154575361069957 0.2154575361069957 0.2171751139696259 0.2171751139696259 0.2171751139696259 0.2171751139696259 0.2180356008752897 
0.2180356008752897 0.2180356008752897 0.2180356008752897 0.2180356008752897 0.2180356008752897 0.2180356008752897 0.2180356008752897 0.2171751139696259 0.2171751139696259 
0.2171751139696259 0.2171751139696259 0.2154575361069957 0.2154575361069957 0.2154575361069957 0.2154575361069957 0.2128896457825364 0.2128896457825364 0.2128896457825364 
0.2128896457825364 0.209481577286201 0.209481577286201 0.209481577286201 0.209481577286201 0.2052467807073463 0.2052467807073463 0.2052467807073463 0.2052467807073463 
0.2002019688533743 0.2002019688533743 0.2002019688533743 0.2002019688533743 0.1943670512919175 0.1943670512919175 0.1943670512919175 0.1943670512919175 0.1877650557768706 
0.1877650557768706 0.1877650557768706 0.1877650557768706 0.1804220373683668 0.1804220373683668 0.1804220373683668 0.1804220373683668 0.1723669756053583 0.1723669756053583 
0.1723669756053583 0.1723669756053583 0.1636316601366161 0.1636316601366161 0.1636316601366161 0.1636316601366161 0.1542505652615092 0.1542505652615092 0.1542505652615092 
0.1542505652615092 0.1442607138756954 0.1442607138756954 0.1442607138756954 0.1442607138756954 0.133701531358665 0.133701531358665 0.133701531358665 0.133701531358665 
0.1226146899797813 0.1226146899797813 0.1226146899797813 0.1226146899797813 0.111043944436871 0.111043944436871 0.111043944436871 0.111043944436871 0.09903495917642097 
0.09903495917642097 0.09903495917642097 0.09903495917642097 0.08663512817687082 0.08663512817687082 0.08663512817687082 0.08663512817687082 0.07389338790623165 0.07389338790623165 
0.07389338790623165 0.07389338790623165 0.06086002419220406 0.06086002419220406 0.06086002419220406 0.06086002419220406 0.04758647376699028 0.04758647376699028 0.04758647376699028 
0.04758647376699028 0.03412512127001011 0.03412512127001011 0.03412512127001011 0.03412512127001011 0.02052909250966214 0.02052909250966214 0.02052909250966214 0.02052909250966214 
0.006852044800028769 0.006852044800028769 0.006852044800028769 0.006852044800028769 -0.006852044800028716 -0.006852044800028716 -0.006852044800028716 -0.006852044800028716 -0.02052909250966228 
-0.02052909250966228 -0.02052909250966228 -0.02052909250966228 -0.03412512127001024 -0.03412512127001024 -0.03412512127001024 -0.03412512127001024 -0.04758647376699042 -0.04758647376699042 
-0.04758647376699042 -0.04758647376699042 -0.06086002419220399 -0.06086002419220399 -0.06086002419220399 -0.06086002419220399 -0.07389338790623132 -0.07389338790623132 -0.07389338790623132 
-0.07389338790623132 -0.0866351281768705 -0.0866351281768705 -0.0866351281768705 -0.0866351281768705 -0.09903495917642083 -0.09903495917642083 -0.09903495917642083 -0.09903495917642083 
-0.1110439444368712 -0.1110439444368712 -0.1110439444368712 -0.1110439444368712 -0.1226146899797813 -0.1226146899797813 -0.1226146899797813 -0.1226146899797813 -0.1337015313586649 
-0.1337015313586649 -0.1337015313586649 -0.1337015313586649 -0.1442607138756951 -0.1442607138756951 -0.1442607138756951 -0.1442607138756951 -0.1542505652615091 -0.1542505652615091 
-0.1542505652615091 -0.1542505652615091 -0.1636316601366161 -0.1636316601366161 -0.1636316601366161 -0.1636316601366161 -0.1723669756053584 -0.1723669756053584 -0.1723669756053584 