Title = RSC/Post/Linear_Advection_2D/Sine_Wave_2D/Quad100/
FileType = Solution
Variables = q
Zone T = RSC/Post/Linear_Advection_2D/Sine_Wave_2D/Quad100/
ZoneType = FETriangle
Nodes = 40000
Elements = 20000
DataPacking = Block
StrandID = 19
SolutionTime = 1.8
0.3478564391317903 0.3478564391317903 0.3478564391317903 0.3478564391317903 0.3533379192765225 0.3533379192765225 0.3533379192765225 0.3533379192765225 0.3574249360786105 0.3574249360786105 
0.3574249360786105 0.3574249360786105 0.360101359949917 0.360101359949917 0.360101359949917 0.360101359949917 0.3613566282681642 0.3613566282681642 0.3613566282681642 
0.3613566282681642 0.3611857870627766 0.3611857870627766 0.3611857870627766 0.3611857870627766 0.3595895105659422 0.3595895105659422 0.3595895105659422 0.3595895105659422 
0.3565740985517246 0.3565740985517246 0.3565740985517246 0.3565740985517246 0.3521514514737335 0.3521514514737335 0.3521514514737335 0.3521514514737335 0.3463390234994703 
0.3463390234994703 0.3463390234994703 0.3463390234994703 0.3391597536267037 0.3391597536267037 0.3391597536267037 0.3391597536267037 0.3306419751537251 0.3306419751537251 
0.3306419751537251 0.3306419751537251 0.3208193038607646 0.3208193038607646 0.3208193038607646 0.3208193038607646 0.3097305053438638 0.3097305053438638 0.3097305053438638 
0.3097305053438638 0.2974193420247788 0.2974193420247788 0.2974193420247788 0.2974193420247788 0.2839344004406945 0.2839344004406945 0.2839344004406945 0.2839344004406945 
0.2693288994953598 0.2693288994953598 0.2693288994953598 0.2693288994953598 0.2536604804283864 0.2536604804283864 0.2536604804283864 0.2536604804283864 0.2369909793316126 
0.2369909793316126 0.2369909793316126 0.2369909793316126 0.2193861831102959 0.2193861831102959 0.2193861831102959 0.2193861831102959 0.2009155698522564 0.2009155698522564 
0.2009155698522564 0.2009155698522564 0.1816520346296029 0.1816520346296029 0.1816520346296029 0.1816520346296029 0.1616716018151869 0.1616716018151869 0.1616716018151869 
0.1616716018151869 0.1410531250491355 0.1410531250491355 0.1410531250491355 0.1410531250491355 0.1198779760395583 0.1198779760395583 0.1198779760395583 0.1198779760395583 
0.09822972342559058 0.09822972342559058 0.09822972342559058 0.09822972342559058 0.07619380297015399 0.07619380297015399 0.07619380297015399 0.07619380297015399 0.05385718038403168 
0.05385718038403168 0.05385718038403168 0.05385718038403168 0.03130800811193896 0.03130800811193896 0.03130800811193896 0.03130800811193896 0.008635277435096775 0.008635277435096775 
0.008635277435096775 0.008635277435096775 -0.01407153273669897 -0.01407153273669897 -0.01407153273669897 -0.01407153273669897 -0.03672280899745484 -0.03672280899745484 -0.03672280899745484 
-0.03672280899745484 -0.05922915710815292 -0.05922915710815292 -0.05922915710815292 -0.05922915710815292 -0.08150175479497328 -0.08150175479497328 -0.08150175479497328 -0.08150175479497328 
-0.1034527022902278 -0.1034527022902278 -0.1034527022902278 -0.1034527022902278 -0.1249953692325869 -0.1249953692325869 -0.1249953692325869 -0.1249953692325869 -0.1460447365575372 
-0.1460447365575372 -0.1460447365575372 -0.1460447365575372 -0.1665177320287884 -0.1665177320287884 -0.1665177320287884 -0.1665177320287884 -0.1863335580864374 -0.1863335580864374 
-0.1863335580864374 -0.1863335580864374 -0.2054140107180245 -0.2054140107180245 -0.2054140107180245 -0.2054140107180245 -0.2236837880940422 -0.2236837880940422 -0.2236837880940422 
-0.2236837880940422 -0.241070787749855 -0.241070787749855 -0.241070787749855 -0.241070787749855 -0.2575063911411868 -0.2575063911411868 -0.2575063911411868 -0.2575063911411868 
-0.2729257344501629 -0.2729257344501629 -0.2729257344501629 -0.2729257344501629 -0.2872679645731716 -0.2872679645731716 -0.2872679645731716 -0.2872679645731716 -0.3004764792802594 
-0.3004764792802594 -0.3004764792802594 -0.3004764792802594 -0.3124991505982737 -0.3124991505982737 -0.3124991505982737 -0.3124991505982737 -0.3232885305361584 -0.3232885305361584 
-0.3232885305361584 -0.3232885305361584 -0.3328020383404975 -0.3328020383404975 -0.3328020383404975 -0.3328020383404975 -0.3410021285422953 -0.3410021285422953 -0.3410021285422953 
-0.3410021285422953 -0.3478564391317905 -0.3478564391317905 -0.3478564391317905 -0.3478564391317905 -0.3533379192765228 -0.3533379192765228 -0.3533379192765228 -0.3533379192765228 
-0.3574249360786108 -0.3574249360786108 -0.3574249360786108 -0.3574249360786108 -0.3601013599499174 -0.3601013599499174 -0.3601013599499174 -0.3601013599499174 -0.3613566282681639 
-0.3613566282681639 -0.3613566282681639 -0.3613566282681639 -0.3611857870627762 -0.3611857870627762 -0.3611857870627762 -0.3611857870627762 -0.3595895105659418 -0.3595895105659418 
-0.3595895105659418 -0.3595895105659418 -0.356574098551724 -0.356574098551724 -0.356574098551724 -0.356574098551724 -0.3521514514737341 -0.3521514514737341 -0.3521514514737341 
-0.3521514514737341 -0.3463390234994704 -0.3463390234994704 -0.3463390234994704 -0.3463390234994704 -0.3391597536267038 -0.3391597536267038 -0.3391597536267038 -0.3391597536267038 
-0.3306419751537252 -0.3306419751537252 -0.3306419751537252 -0.3306419751537252 -0.3208193038607647 -0.3208193038607647 -0.3208193038607647 -0.3208193038607647 -0.3097305053438639 
-0.3097305053438639 -0.3097305053438639 -0.3097305053438639 -0.2974193420247799 -0.2974193420247799 -0.2974193420247799 -0.2974193420247799 -0.2839344004406952 -0.2839344004406952 
-0.2839344004406952 -0.2839344004406952 -0.2693288994953599 -0.2693288994953599 -0.2693288994953599 -0.2693288994953599 -0.2536604804283864 -0.2536604804283864 -0.2536604804283864 
-0.2536604804283864 -0.2369909793316124 -0.2369909793316124 -0.2369909793316124 -0.2369909793316124 -0.2193861831102961 -0.2193861831102961 -0.2193861831102961 -0.2193861831102961 
-0.2009155698522564 -0.2009155698522564 -0.2009155698522564 -0.2009155698522564 -0.1816520346296027 -0.1816520346296027 -0.1816520346296027 -0.1816520346296027 -0.1616716018151866 
-0.1616716018151866 -0.1616716018151866 -0.1616716018151866 -0.1410531250491352 -0.1410531250491352 -0.1410531250491352 -0.1410531250491352 -0.119877976039558 -0.119877976039558 
-0.119877976039558 -0.119877976039558 -0.09822972342559042 -0.09822972342559042 -0.09822972342559042 -0.09822972342559042 -0.07619380297015393 -0.07619380297015393 -0.07619380297015393 
-0.07619380297015393 -0.05385718038403162 -0.05385718038403162 -0.05385718038403162 -0.05385718038403162 -0.03130800811193878 -0.03130800811193878 -0.03130800811193878 -0.03130800811193878 
-0.008635277435096475 -0.008635277435096475 -0.008635277435096475 -0.008635277435096475 0.01407153273669917 0.01407153273669917 0.01407153273669917 0.01407153273669917 0.03672280899745487 
0.03672280899745487 0.03672280899745487 0.03672280899745487 0.05922915710815314 0.05922915710815314 0.05922915710815314 0.05922915710815314 0.08150175479497347 0.08150175479497347 
0.08150175479497347 0.08150175479497347 0.1034527022902281 0.1034527022902281 0.1034527022902281 0.1034527022902281 0.1249953692325868 0.1249953692325868 0.1249953692325868 
0.1249953692325868 0.1460447365575372 0.1460447365575372 0.1460447365575372 0.1460447365575372 0.1665177320287883 0.1665177320287883 0.1665177320287883 0.1665177320287883 
0.1863335580864374 0.1863335580864374 0.1863335580864374 0.1863335580864374 0.2054140107180242 0.2054140107180242 0.2054140107180242 0.2054140107180242 0.2236837880940424 
0.2236837880940424 0.2236837880940424 0.2236837880940424 0.2410707877498552 0.2410707877498552 0.2410707877498552 0.2410707877498552 0.2575063911411862 0.2575063911411862 
0.2575063911411862 0.2575063911411862 0.272925734450163 0.272925734450163 0.272925734450163 0.272925734450163 0.2872679645731719 0.2872679645731719 0.2872679645731719 
0.2872679645731719 0.3004764792802595 0.3004764792802595 0.3004764792802595 0.3004764792802595 0.3124991505982737 0.3124991505982737 0.3124991505982737 0.3124991505982737 
0.3232885305361584 0.3232885305361584 0.3232885305361584 0.3232885305361584 0.3328020383404975 0.3328020383404975 0.3328020383404975 0.3328020383404975 0.3410021285422953 
0.3410021285422953 0.3410021285422953 0.3410021285422953 0.3751121383935427 0.3751121383935427 0.3751121383935427 0.3751121383935427 0.3810233496351341 0.3810233496351341 
0.3810233496351341 0.3810233496351341 0.3854308357887258 0.3854308357887258 0.3854308357887258 0.3854308357887258 0.3883172025200587 0.3883172025200587 0.3883172025200587 
0.3883172025200587 0.3896710586582999 0.3896710586582999 0.3896710586582999 0.3896710586582999 0.3894870611517897 0.3894870611517897 0.3894870611517897 0.3894870611517897 
0.3877659361546255 0.3877659361546255 0.3877659361546255 0.3877659361546255 0.3845144761608641 0.3845144761608641 0.3845144761608641 0.3845144761608641 0.3797455131976503 
0.3797455131976503 0.3797455131976503 0.3797455131976503 0.3734778681830677 0.3734778681830677 0.3734778681830677 0.3734778681830677 0.3657362766485741 0.3657362766485741 
0.3657362766485741 0.3657362766485741 0.3565512911191598 0.3565512911191598 0.3565512911191598 0.3565512911191598 0.3459591605364883 0.3459591605364883 0.3459591605364883 
0.3459591605364883 0.3340016872008856 0.3340016872008856 0.3340016872008856 0.3340016872008856 0.3207260617967573 0.3207260617967573 0.3207260617967573 0.3207260617967573 
0.306184677152517 0.306184677152517 0.306184677152517 0.306184677152517 0.2904349214700291 0.2904349214700291 0.2904349214700291 0.2904349214700291 0.273538951839593 
0.273538951839593 0.273538951839593 0.273538951839593 0.2555634489343062 0.2555634489343062 0.2555634489343062 0.2555634489343062 0.236579353851909 0.236579353851909 
0.236579353851909 0.236579353851909 0.2166615881426844 0.2166615881426844 0.2166615881426844 0.2166615881426844 0.1958887581283248 0.1958887581283248 0.1958887581283248 
0.1958887581283248 0.1743428446786935 0.1743428446786935 0.1743428446786935 0.1743428446786935 0.1521088796707848 0.1521088796707848 0.1521088796707848 0.1521088796707848 
0.1292746104067525 0.1292746104067525 0.1292746104067525 0.1292746104067525 0.1059301533153962 0.1059301533153962 0.1059301533153962 0.1059301533153962 0.08216763830378811 
0.08216763830378811 0.08216763830378811 0.08216763830378811 0.05808084516261795 0.05808084516261795 0.05808084516261795 0.05808084516261795 0.03376483346020508 0.03376483346020508 
0.03376483346020508 0.03376483346020508 0.009315567385809985 0.009315567385809985 0.009315567385809985 0.009315567385809985 -0.01517046297717927 -0.01517046297717927 -0.01517046297717927 
-0.01517046297717927 -0.03959662245352307 -0.03959662245352307 -0.03959662245352307 -0.03959662245352307 -0.06386651215101843 -0.06386651215101843 -0.06386651215101843 -0.06386651215101843 
-0.08788434990288801 -0.08788434990288801 -0.08788434990288801 -0.08788434990288801 -0.1115553482762309 -0.1115553482762309 -0.1115553482762309 -0.1115553482762309 -0.1347860886547183 
-0.1347860886547183 -0.1347860886547183 -0.1347860886547183 -0.157484889919192 -0.157484889919192 -0.157484889919192 -0.157484889919192 -0.1795621702711572 -0.1795621702711572 
-0.1795621702711572 -0.1795621702711572 -0.2009308007712146 -0.2009308007712146 -0.2009308007712146 -0.2009308007712146 -0.2215064491971789 -0.2215064491971789 -0.2215064491971789 
-0.2215064491971789 -0.2412079128648326 -0.2412079128648326 -0.2412079128648326 -0.2412079128648326 -0.2599574390978221 -0.2599574390978221 -0.2599574390978221 -0.2599574390978221 
-0.2776810320819498 -0.2776810320819498 -0.2776810320819498 -0.2776810320819498 -0.2943087448928464 -0.2943087448928464 -0.2943087448928464 -0.2943087448928464 -0.3097749555445264 
-0.3097749555445264 -0.3097749555445264 -0.3097749555445264 -0.3240186259693875 -0.3240186259693875 -0.3240186259693875 -0.3240186259693875 -0.3369835429075765 -0.3369835429075765 
-0.3369835429075765 -0.3369835429075765 -0.3486185397550463 -0.3486185397550463 -0.3486185397550463 -0.3486185397550463 -0.3588776984947636 -0.3588776984947636 -0.3588776984947636 
-0.3588776984947636 -0.367720530914147 -0.367720530914147 -0.367720530914147 -0.367720530914147 -0.3751121383935428 -0.3751121383935428 -0.3751121383935428 -0.3751121383935428 
-0.3810233496351341 -0.3810233496351341 -0.3810233496351341 -0.3810233496351341 -0.3854308357887258 -0.3854308357887258 -0.3854308357887258 -0.3854308357887258 -0.3883172025200588 
-0.3883172025200588 -0.3883172025200588 -0.3883172025200588 -0.3896710586582999 -0.3896710586582999 -0.3896710586582999 -0.3896710586582999 -0.3894870611517897 -0.3894870611517897 
-0.3894870611517897 -0.3894870611517897 -0.3877659361546255 -0.3877659361546255 -0.3877659361546255 -0.3877659361546255 -0.3845144761608639 -0.3845144761608639 -0.3845144761608639 
-0.3845144761608639 -0.3797455131976504 -0.3797455131976504 -0.3797455131976504 -0.3797455131976504 -0.3734778681830677 -0.3734778681830677 -0.3734778681830677 -0.3734778681830677 
-0.3657362766485742 -0.3657362766485742 -0.3657362766485742 -0.3657362766485742 -0.3565512911191598 -0.3565512911191598 -0.3565512911191598 -0.3565512911191598 -0.3459591605364885 
-0.3459591605364885 -0.3459591605364885 -0.3459591605364885 -0.3340016872008857 -0.3340016872008857 -0.3340016872008857 -0.3340016872008857 -0.3207260617967579 -0.3207260617967579 
-0.3207260617967579 -0.3207260617967579 -0.3061846771525177 -0.3061846771525177 -0.3061846771525177 -0.3061846771525177 -0.2904349214700291 -0.2904349214700291 -0.2904349214700291 
-0.2904349214700291 -0.2735389518395931 -0.2735389518395931 -0.2735389518395931 -0.2735389518395931 -0.2555634489343057 -0.2555634489343057 -0.2555634489343057 -0.2555634489343057 
-0.2365793538519091 -0.2365793538519091 -0.2365793538519091 -0.2365793538519091 -0.2166615881426838 -0.2166615881426838 -0.2166615881426838 -0.2166615881426838 -0.1958887581283247 
-0.1958887581283247 -0.1958887581283247 -0.1958887581283247 -0.1743428446786932 -0.1743428446786932 -0.1743428446786932 -0.1743428446786932 -0.1521088796707851 -0.1521088796707851 
-0.1521088796707851 -0.1521088796707851 -0.1292746104067527 -0.1292746104067527 -0.1292746104067527 -0.1292746104067527 -0.1059301533153966 -0.1059301533153966 -0.1059301533153966 
-0.1059301533153966 -0.08216763830378815 -0.08216763830378815 -0.08216763830378815 -0.08216763830378815 -0.05808084516261777 -0.05808084516261777 -0.05808084516261777 -0.05808084516261777 
-0.03376483346020481 -0.03376483346020481 -0.03376483346020481 -0.03376483346020481 -0.009315567385809532 -0.009315567385809532 -0.009315567385809532 -0.009315567385809532 0.01517046297717962 
0.01517046297717962 0.01517046297717962 0.01517046297717962 0.03959662245352313 0.03959662245352313 0.03959662245352313 0.03959662245352313 0.06386651215101832 0.06386651215101832 
0.06386651215101832 0.06386651215101832 0.08788434990288758 0.08788434990288758 0.08788434990288758 0.08788434990288758 0.1115553482762305 0.1115553482762305 0.1115553482762305 
0.1115553482762305 0.1347860886547179 0.1347860886547179 0.1347860886547179 0.1347860886547179 0.1574848899191921 0.1574848899191921 0.1574848899191921 0.1574848899191921 
0.1795621702711572 0.1795621702711572 0.1795621702711572 0.1795621702711572 0.2009308007712146 0.2009308007712146 0.2009308007712146 0.2009308007712146 0.2215064491971788 
0.2215064491971788 0.2215064491971788 0.2215064491971788 0.241207912864833 0.241207912864833 0.241207912864833 0.241207912864833 0.2599574390978221 0.2599574390978221 
0.2599574390978221 0.2599574390978221 0.2776810320819494 0.2776810320819494 0.2776810320819494 0.2776810320819494 0.2943087448928459 0.2943087448928459 0.2943087448928459 
0.2943087448928459 0.3097749555445259 0.3097749555445259 0.3097749555445259 0.3097749555445259 0.3240186259693874 0.3240186259693874 0.3240186259693874 0.3240186259693874 
0.3369835429075766 0.3369835429075766 0.3369835429075766 0.3369835429075766 0.3486185397550463 0.3486185397550463 0.3486185397550463 0.3486185397550463 0.3588776984947636 
0.3588776984947636 0.3588776984947636 0.3588776984947636 0.3677205309141469 0.3677205309141469 0.3677205309141469 0.3677205309141469 0.4008874414174908 0.4008874414174908 
0.4008874414174908 0.4008874414174908 0.407205054905746 0.407205054905746 0.407205054905746 0.407205054905746 0.4119156160765822 0.4119156160765822 0.4119156160765822 
0.4119156160765822 0.4150005344971084 0.4150005344971084 0.4150005344971084 0.4150005344971084 0.4164476354036843 0.4164476354036843 0.4164476354036843 0.4164476354036843 
0.416251207750149 0.416251207750149 0.416251207750149 0.416251207750149 0.4144120267467117 0.4144120267467117 0.4144120267467117 0.4144120267467117 0.410937350800551 
0.410937350800551 0.410937350800551 0.410937350800551 0.4058408928701981 0.4058408928701981 0.4058408928701981 0.4058408928701981 0.3991427663467539 0.3991427663467539 
0.3991427663467539 0.3991427663467539 0.3908694056755234 0.3908694056755234 0.3908694056755234 0.3908694056755234 0.3810534620313373 0.3810534620313373 0.3810534620313373 
0.3810534620313373 0.3697336744592808 0.3697336744592808 0.3697336744592808 0.3697336744592808 0.3569547169893817 0.3569547169893817 0.3569547169893817 0.3569547169893817 
0.3427670223286238 0.3427670223286238 0.3427670223286238 0.3427670223286238 0.3272265828260917 0.3272265828260917 0.3272265828260917 0.3272265828260917 0.3103947294967505 
0.3103947294967505 0.3103947294967505 0.3103947294967505 0.292337889975949 0.292337889975949 0.292337889975949 0.292337889975949 0.27312732635989 0.27312732635989 
0.27312732635989 0.27312732635989 0.2528388539666944 0.2528388539666944 0.2528388539666944 0.2528388539666944 0.2315525421279773 0.2315525421279773 0.2315525421279773 
0.2315525421279773 0.209352398191775 0.209352398191775 0.209352398191775 0.209352398191775 0.1863260359839227 0.1863260359839227 0.1863260359839227 0.1863260359839227 
0.1625643300363106 0.1625643300363106 0.1625643300363106 0.1625643300363106 0.138161056946623 0.138161056946623 0.138161056946623 0.138161056946623 0.1132125252849498 
0.1132125252849498 0.1132125252849498 0.1132125252849498 0.08781719550786016 0.08781719550786016 0.08781719550786016 0.08781719550786016 0.06207529137996101 0.06207529137996101 
0.06207529137996101 0.06207529137996101 0.03608840443648849 0.03608840443648849 0.03608840443648849 0.03608840443648849 0.009959093047929059 0.009959093047929059 0.009959093047929059 
0.009959093047929059 -0.01620952233101406 -0.01620952233101406 -0.01620952233101406 -0.01620952233101406 -0.04231416613074332 -0.04231416613074332 -0.04231416613074332 -0.04231416613074332 
-0.06825181524825792 -0.06825181524825792 -0.06825181524825792 -0.06825181524825792 -0.09392010563227582 -0.09392010563227582 -0.09392010563227582 -0.09392010563227582 -0.119217736267378 
-0.119217736267378 -0.119217736267378 -0.119217736267378 -0.1440448689628358 -0.1440448689628358 -0.1440448689628358 -0.1440448689628358 -0.1683035223683381 -0.1683035223683381 
-0.1683035223683381 -0.1683035223683381 -0.1918979586616181 -0.1918979586616181 -0.1918979586616181 -0.1918979586616181 -0.2147350613818988 -0.2147350613818988 -0.2147350613818988 
-0.2147350613818988 -0.2367247029180227 -0.2367247029180227 -0.2367247029180227 -0.2367247029180227 -0.2577801002009587 -0.2577801002009587 -0.2577801002009587 -0.2577801002009587 
-0.277818157196927 -0.277818157196927 -0.277818157196927 -0.277818157196927 -0.296759792849482 -0.296759792849482 -0.296759792849482 -0.296759792849482 -0.3145302531763132 
-0.3145302531763132 -0.3145302531763132 -0.3145302531763132 -0.3310594062890617 -0.3310594062890617 -0.3310594062890617 -0.3310594062890617 -0.3462820191718433 -0.3462820191718433 
-0.3462820191718433 -0.3462820191718433 -0.3601380151261596 -0.3601380151261596 -0.3601380151261596 -0.3601380151261596 -0.3725727108661817 -0.3725727108661817 -0.3725727108661817 
-0.3725727108661817 -0.3835370323286958 -0.3835370323286958 -0.3835370323286958 -0.3835370323286958 -0.3929877083460112 -0.3929877083460112 -0.3929877083460112 -0.3929877083460112 
-0.4008874414174908 -0.4008874414174908 -0.4008874414174908 -0.4008874414174908 -0.4072050549057462 -0.4072050549057462 -0.4072050549057462 -0.4072050549057462 -0.4119156160765823 
-0.4119156160765823 -0.4119156160765823 -0.4119156160765823 -0.4150005344971087 -0.4150005344971087 -0.4150005344971087 -0.4150005344971087 -0.4164476354036844 -0.4164476354036844 
-0.4164476354036844 -0.4164476354036844 -0.416251207750149 -0.416251207750149 -0.416251207750149 -0.416251207750149 -0.4144120267467116 -0.4144120267467116 -0.4144120267467116 
-0.4144120267467116 -0.4109373508005512 -0.4109373508005512 -0.4109373508005512 -0.4109373508005512 -0.4058408928701981 -0.4058408928701981 -0.4058408928701981 -0.4058408928701981 
-0.3991427663467539 -0.3991427663467539 -0.3991427663467539 -0.3991427663467539 -0.3908694056755236 -0.3908694056755236 -0.3908694056755236 -0.3908694056755236 -0.3810534620313374 
-0.3810534620313374 -0.3810534620313374 -0.3810534620313374 -0.3697336744592808 -0.3697336744592808 -0.3697336744592808 -0.3697336744592808 -0.3569547169893821 -0.3569547169893821 
-0.3569547169893821 -0.3569547169893821 -0.3427670223286239 -0.3427670223286239 -0.3427670223286239 -0.3427670223286239 -0.3272265828260916 -0.3272265828260916 -0.3272265828260916 
-0.3272265828260916 -0.3103947294967506 -0.3103947294967506 -0.3103947294967506 -0.3103947294967506 -0.2923378899759491 -0.2923378899759491 -0.2923378899759491 -0.2923378899759491 
-0.2731273263598901 -0.2731273263598901 -0.2731273263598901 -0.2731273263598901 -0.2528388539666948 -0.2528388539666948 -0.2528388539666948 -0.2528388539666948 -0.2315525421279773 
-0.2315525421279773 -0.2315525421279773 -0.2315525421279773 -0.2093523981917749 -0.2093523981917749 -0.2093523981917749 -0.2093523981917749 -0.1863260359839226 -0.1863260359839226 
-0.1863260359839226 -0.1863260359839226 -0.1625643300363106 -0.1625643300363106 -0.1625643300363106 -0.1625643300363106 -0.1381610569466229 -0.1381610569466229 -0.1381610569466229 
-0.1381610569466229 -0.1132125252849497 -0.1132125252849497 -0.1132125252849497 -0.1132125252849497 -0.08781719550786005 -0.08781719550786005 -0.08781719550786005 -0.08781719550786005 
-0.06207529137996099 -0.06207529137996099 -0.06207529137996099 -0.06207529137996099 -0.03608840443648859 -0.03608840443648859 -0.03608840443648859 -0.03608840443648859 -0.009959093047928788 
-0.009959093047928788 -0.009959093047928788 -0.009959093047928788 0.01620952233101436 0.01620952233101436 0.01620952233101436 0.01620952233101436 0.04231416613074343 0.04231416613074343 
0.04231416613074343 0.04231416613074343 0.06825181524825757 0.06825181524825757 0.06825181524825757 0.06825181524825757 0.09392010563227539 0.09392010563227539 0.09392010563227539 
0.09392010563227539 0.1192177362673781 0.1192177362673781 0.1192177362673781 0.1192177362673781 0.144044868962836 0.144044868962836 0.144044868962836 0.144044868962836 
0.1683035223683384 0.1683035223683384 0.1683035223683384 0.1683035223683384 0.1918979586616182 0.1918979586616182 0.1918979586616182 0.1918979586616182 0.2147350613818986 
0.2147350613818986 0.2147350613818986 0.2147350613818986 0.2367247029180227 0.2367247029180227 0.2367247029180227 0.2367247029180227 0.2577801002009589 0.2577801002009589 
0.2577801002009589 0.2577801002009589 0.2778181571969272 0.2778181571969272 0.2778181571969272 0.2778181571969272 0.2967597928494819 0.2967597928494819 0.2967597928494819 
0.2967597928494819 0.3145302531763132 0.3145302531763132 0.3145302531763132 0.3145302531763132 0.3310594062890618 0.3310594062890618 0.3310594062890618 0.3310594062890618 
0.3462820191718435 0.3462820191718435 0.3462820191718435 0.3462820191718435 0.3601380151261596 0.3601380151261596 0.3601380151261596 0.3601380151261596 0.3725727108661819 
0.3725727108661819 0.3725727108661819 0.3725727108661819 0.3835370323286958 0.3835370323286958 0.3835370323286958 0.3835370323286958 0.3929877083460112 0.3929877083460112 
0.3929877083460112 0.3929877083460112 0.4250806248582144 0.4250806248582144 0.4250806248582144 0.4250806248582144 0.4317797078589388 0.4317797078589388 0.4317797078589388 
0.4317797078589388 0.4367747536141287 0.4367747536141287 0.4367747536141287 0.4367747536141287 0.4400460489602077 0.4400460489602077 0.4400460489602077 0.4400460489602077 
0.4415806835889577 0.4415806835889577 0.4415806835889577 0.4415806835889577 0.4413726009986066 0.4413726009986066 0.4413726009986066 0.4413726009986066 0.4394226223960747 
0.4394226223960747 0.4394226223960747 0.4394226223960747 0.4357384434560457 0.4357384434560457 0.4357384434560457 0.4357384434560457 0.4303346039496548 0.4303346039496548 
0.4303346039496548 0.4303346039496548 0.4232324303626541 0.4232324303626541 0.4232324303626541 0.4232324303626541 0.414459951729517 0.414459951729517 0.414459951729517 
0.414459951729517 0.4040517890156444 0.4040517890156444 0.4040517890156444 0.4040517890156444 0.3920490184842307 0.3920490184842307 0.3920490184842307 0.3920490184842307 
0.3784990095870188 0.3784990095870188 0.3784990095870188 0.3784990095870188 0.3634552380187162 0.3634552380187162 0.3634552380187162 0.3634552380187162 0.3469770746728572 
0.3469770746728572 0.3469770746728572 0.3469770746728572 0.3291295513320116 0.3291295513320116 0.3291295513320116 0.3291295513320116 0.3099831040170474 0.3099831040170474 
0.3099831040170474 0.3099831040170474 0.2896132950083375 0.2896132950083375 0.2896132950083375 0.2896132950083375 0.268100514635958 0.268100514635958 0.268100514635958 
0.268100514635958 0.245529664015785 0.245529664015785 0.245529664015785 0.245529664015785 0.2219898199835753 0.2219898199835753 0.2219898199835753 0.2219898199835753 
0.197573883549392 0.197573883549392 0.197573883549392 0.197573883549392 0.1723782132597609 0.1723782132597609 0.1723782132597609 0.1723782132597609 0.1465022449145079 
0.1465022449145079 0.1465022449145079 0.1465022449145079 0.1200480991390865 0.1200480991390865 0.1200480991390865 0.1200480991390865 0.0931201783611231 0.0931201783611231 
0.0931201783611231 0.0931201783611231 0.0658247547817308 0.0658247547817308 0.0658247547817308 0.0658247547817308 0.03826955096768501 0.03826955096768501 0.03826955096768501 
0.03826955096768501 0.01056331471966506 0.01056331471966506 0.01056331471966506 0.01056331471966506 -0.01718461010563455 -0.01718461010563455 -0.01718461010563455 -0.01718461010563455 
-0.04486471512574909 -0.04486471512574909 -0.04486471512574909 -0.04486471512574909 -0.07236775961200065 -0.07236775961200065 -0.07236775961200065 -0.07236775961200065 -0.09958520161274809 
-0.09958520161274809 -0.09958520161274809 -0.09958520161274809 -0.1264096263188808 -0.1264096263188808 -0.1264096263188808 -0.1264096263188808 -0.152735169980998 -0.152735169980998 
-0.152735169980998 -0.152735169980998 -0.178457937705262 -0.178457937705262 -0.178457937705262 -0.178457937705262 -0.2034764134790796 -0.2034764134790796 -0.2034764134790796 
-0.2034764134790796 -0.2276918608084264 -0.2276918608084264 -0.2276918608084264 -0.2276918608084264 -0.2510087123856786 -0.2510087123856786 -0.2510087123856786 -0.2510087123856786 
-0.2733349472501171 -0.2733349472501171 -0.2733349472501171 -0.2733349472501171 -0.2945824539526186 -0.2945824539526186 -0.2945824539526186 -0.2945824539526186 -0.3146673782912905 
-0.3146673782912905 -0.3146673782912905 -0.3146673782912905 -0.3335104542456976 -0.3335104542456976 -0.3335104542456976 -0.3335104542456976 -0.3510373168036304 -0.3510373168036304 
-0.3510373168036304 -0.3510373168036304 -0.3671787954458343 -0.3671787954458343 -0.3671787954458343 -0.3671787954458343 -0.3818711871304484 -0.3818711871304484 -0.3818711871304484 
-0.3818711871304484 -0.3950565076998092 -0.3950565076998092 -0.3950565076998092 -0.3950565076998092 -0.4066827207174291 -0.4066827207174291 -0.4066827207174291 -0.4066827207174291 
-0.4167039428320394 -0.4167039428320394 -0.4167039428320394 -0.4167039428320394 -0.4250806248582144 -0.4250806248582144 -0.4250806248582144 -0.4250806248582144 -0.4317797078589388 
-0.4317797078589388 -0.4317797078589388 -0.4317797078589388 -0.4367747536141289 -0.4367747536141289 -0.4367747536141289 -0.4367747536141289 -0.4400460489602079 -0.4400460489602079 
-0.4400460489602079 -0.4400460489602079 -0.4415806835889578 -0.4415806835889578 -0.4415806835889578 -0.4415806835889578 -0.4413726009986066 -0.4413726009986066 -0.4413726009986066 
-0.4413726009986066 -0.4394226223960747 -0.4394226223960747 -0.4394226223960747 -0.4394226223960747 -0.4357384434560455 -0.4357384434560455 -0.4357384434560455 -0.4357384434560455 
-0.4303346039496549 -0.4303346039496549 -0.4303346039496549 -0.4303346039496549 -0.4232324303626541 -0.4232324303626541 -0.4232324303626541 -0.4232324303626541 -0.4144599517295172 
-0.4144599517295172 -0.4144599517295172 -0.4144599517295172 -0.4040517890156444 -0.4040517890156444 -0.4040517890156444 -0.4040517890156444 -0.392049018484231 -0.392049018484231 
-0.392049018484231 -0.392049018484231 -0.3784990095870188 -0.3784990095870188 -0.3784990095870188 -0.3784990095870188 -0.3634552380187164 -0.3634552380187164 -0.3634552380187164 
-0.3634552380187164 -0.3469770746728578 -0.3469770746728578 -0.3469770746728578 -0.3469770746728578 -0.3291295513320119 -0.3291295513320119 -0.3291295513320119 -0.3291295513320119 
-0.3099831040170478 -0.3099831040170478 -0.3099831040170478 -0.3099831040170478 -0.2896132950083379 -0.2896132950083379 -0.2896132950083379 -0.2896132950083379 -0.2681005146359582 
-0.2681005146359582 -0.2681005146359582 -0.2681005146359582 -0.2455296640157851 -0.2455296640157851 -0.2455296640157851 -0.2455296640157851 -0.2219898199835751 -0.2219898199835751 
-0.2219898199835751 -0.2219898199835751 -0.1975738835493921 -0.1975738835493921 -0.1975738835493921 -0.1975738835493921 -0.1723782132597608 -0.1723782132597608 -0.1723782132597608 
-0.1723782132597608 -0.1465022449145079 -0.1465022449145079 -0.1465022449145079 -0.1465022449145079 -0.1200480991390868 -0.1200480991390868 -0.1200480991390868 -0.1200480991390868 