Title = Result/Post/Linear_Advection_2D/Sine_Wave_2D/Quad100/
FileType = Solution
Variables = q
Zone T = Result/Post/Linear_Advection_2D/Sine_Wave_2D/Quad100/
ZoneType = FETriangle
Nodes = 40000
Elements = 20000
DataPacking = Block
StrandID = 2
SolutionTime = 2
0.000818877510215028 0.000818877510215028 0.000818877510215028 0.000818877510215028 0.00205092828452882 0.00205092828452882 0.00205092828452882 0.00205092828452882 0.003274884981883584 0.003274884981883584 
0.003274884981883584 0.003274884981883584 0.004485917204367484 0.004485917204367484 0.004485917204367484 0.004485917204367484 0.005679245561066364 0.005679245561066364 0.005679245561066364 
0.005679245561066364 0.006850160530136232 0.006850160530136232 0.006850160530136232 0.006850160530136232 0.007994041045134305 0.007994041045134305 0.007994041045134305 0.007994041045134305 
0.009106372732257197 0.009106372732257197 0.009106372732257197 0.009106372732257197 0.01018276572651183 0.01018276572651183 0.01018276572651183 0.01018276572651183 0.01121897199650707 
0.01121897199650707 0.01121897199650707 0.01121897199650707 0.01221090210949286 0.01221090210949286 0.01221090210949286 0.01221090210949286 0.01315464137048301 0.01315464137048301 
0.01315464137048301 0.01315464137048301 0.01404646527176788 0.01404646527176788 0.01404646527176788 0.01404646527176788 0.01488285419184456 0.01488285419184456 0.01488285419184456 
0.01488285419184456 0.0156605072857554 0.0156605072857554 0.0156605072857554 0.0156605072857554 0.01637635551201458 0.01637635551201458 0.01637635551201458 0.01637635551201458 
0.01702757374471301 0.01702757374471301 0.01702757374471301 0.01702757374471301 0.01761159192299954 0.01761159192299954 0.01761159192299954 0.01761159192299954 0.01812610519393699 
0.01812610519393699 0.01812610519393699 0.01812610519393699 0.01856908300870374 0.01856908300870374 0.01856908300870374 0.01856908300870374 0.0189387771362422 0.0189387771362422 
0.0189387771362422 0.0189387771362422 0.01923372856272815 0.01923372856272815 0.01923372856272815 0.01923372856272815 0.01945277324963177 0.01945277324963177 0.01945277324963177 
0.01945277324963177 0.01959504672764583 0.01959504672764583 0.01959504672764583 0.01959504672764583 0.01965998750835119 0.01965998750835119 0.01965998750835119 0.01965998750835119 
0.01964733930015507 0.01964733930015507 0.01964733930015507 0.01964733930015507 0.01955715201975666 0.01955715201975666 0.01955715201975666 0.01955715201975666 0.01938978159514913 
0.01938978159514913 0.01938978159514913 0.01938978159514913 0.01914588856093418 0.01914588856093418 0.01914588856093418 0.01914588856093418 0.0188264354514937 0.0188264354514937 
0.0188264354514937 0.0188264354514937 0.01843268300230639 0.01843268300230639 0.01843268300230639 0.01843268300230639 0.01796618517440079 0.01796618517440079 0.01796618517440079 
0.01796618517440079 0.01742878302158097 0.01742878302158097 0.01742878302158097 0.01742878302158097 0.01682259742462873 0.01682259742462873 0.01682259742462873 0.01682259742462873 
0.01615002072115513 0.01615002072115513 0.01615002072115513 0.01615002072115513 0.01541370726413775 0.01541370726413775 0.01541370726413775 0.01541370726413775 0.01461656294640182 
0.01461656294640182 0.01461656294640182 0.01461656294640182 0.01376173373238888 0.01376173373238888 0.01376173373238888 0.01376173373238888 0.0128525932424723 0.0128525932424723 
0.0128525932424723 0.0128525932424723 0.01189272943881902 0.01189272943881902 0.01189272943881902 0.01189272943881902 0.01088593046534198 0.01088593046534198 0.01088593046534198 
0.01088593046534198 0.009836169697626783 0.009836169697626783 0.009836169697626783 0.009836169697626783 0.008747590061833552 0.008747590061833552 0.008747590061833552 0.008747590061833552 
0.007624487684460021 0.007624487684460021 0.007624487684460021 0.007624487684460021 0.006471294937492982 0.006471294937492982 0.006471294937492982 0.006471294937492982 0.005292562945861105 
0.005292562945861105 0.005292562945861105 0.005292562945861105 0.004092943626223922 0.004092943626223922 0.004092943626223922 0.004092943626223922 0.002877171327982097 0.002877171327982097 
0.002877171327982097 0.002877171327982097 0.001650044148963286 0.001650044148963286 0.001650044148963286 0.001650044148963286 0.0004164049995219844 0.0004164049995219844 0.0004164049995219844 
0.0004164049995219844 -0.0008188775102150804 -0.0008188775102150804 -0.0008188775102150804 -0.0008188775102150804 -0.002050928284528906 -0.002050928284528906 -0.002050928284528906 -0.002050928284528906 
-0.003274884981883638 -0.003274884981883638 -0.003274884981883638 -0.003274884981883638 -0.004485917204367584 -0.004485917204367584 -0.004485917204367584 -0.004485917204367584 -0.005679245561066448 
-0.005679245561066448 -0.005679245561066448 -0.005679245561066448 -0.006850160530136274 -0.006850160530136274 -0.006850160530136274 -0.006850160530136274 -0.007994041045134341 -0.007994041045134341 
-0.007994041045134341 -0.007994041045134341 -0.009106372732257215 -0.009106372732257215 -0.009106372732257215 -0.009106372732257215 -0.01018276572651181 -0.01018276572651181 -0.01018276572651181 
-0.01018276572651181 -0.01121897199650704 -0.01121897199650704 -0.01121897199650704 -0.01121897199650704 -0.01221090210949283 -0.01221090210949283 -0.01221090210949283 -0.01221090210949283 
-0.01315464137048296 -0.01315464137048296 -0.01315464137048296 -0.01315464137048296 -0.01404646527176779 -0.01404646527176779 -0.01404646527176779 -0.01404646527176779 -0.01488285419184452 
-0.01488285419184452 -0.01488285419184452 -0.01488285419184452 -0.01566050728575535 -0.01566050728575535 -0.01566050728575535 -0.01566050728575535 -0.01637635551201443 -0.01637635551201443 
-0.01637635551201443 -0.01637635551201443 -0.01702757374471302 -0.01702757374471302 -0.01702757374471302 -0.01702757374471302 -0.01761159192299941 -0.01761159192299941 -0.01761159192299941 
-0.01761159192299941 -0.01812610519393702 -0.01812610519393702 -0.01812610519393702 -0.01812610519393702 -0.01856908300870362 -0.01856908300870362 -0.01856908300870362 -0.01856908300870362 
-0.01893877713624235 -0.01893877713624235 -0.01893877713624235 -0.01893877713624235 -0.0192337285627281 -0.0192337285627281 -0.0192337285627281 -0.0192337285627281 -0.01945277324963183 
-0.01945277324963183 -0.01945277324963183 -0.01945277324963183 -0.01959504672764571 -0.01959504672764571 -0.01959504672764571 -0.01959504672764571 -0.01965998750835114 -0.01965998750835114 
-0.01965998750835114 -0.01965998750835114 -0.01964733930015489 -0.01964733930015489 -0.01964733930015489 -0.01964733930015489 -0.01955715201975655 -0.01955715201975655 -0.01955715201975655 
-0.01955715201975655 -0.01938978159514908 -0.01938978159514908 -0.01938978159514908 -0.01938978159514908 -0.01914588856093415 -0.01914588856093415 -0.01914588856093415 -0.01914588856093415 
-0.01882643545149367 -0.01882643545149367 -0.01882643545149367 -0.01882643545149367 -0.01843268300230637 -0.01843268300230637 -0.01843268300230637 -0.01843268300230637 -0.01796618517440079 
-0.01796618517440079 -0.01796618517440079 -0.01796618517440079 -0.01742878302158112 -0.01742878302158112 -0.01742878302158112 -0.01742878302158112 -0.01682259742462882 -0.01682259742462882 
-0.01682259742462882 -0.01682259742462882 -0.0161500207211552 -0.0161500207211552 -0.0161500207211552 -0.0161500207211552 -0.01541370726413774 -0.01541370726413774 -0.01541370726413774 
-0.01541370726413774 -0.01461656294640195 -0.01461656294640195 -0.01461656294640195 -0.01461656294640195 -0.01376173373238892 -0.01376173373238892 -0.01376173373238892 -0.01376173373238892 
-0.01285259324247244 -0.01285259324247244 -0.01285259324247244 -0.01285259324247244 -0.01189272943881906 -0.01189272943881906 -0.01189272943881906 -0.01189272943881906 -0.01088593046534214 
-0.01088593046534214 -0.01088593046534214 -0.01088593046534214 -0.009836169697626834 -0.009836169697626834 -0.009836169697626834 -0.009836169697626834 -0.0087475900618336 -0.0087475900618336 
-0.0087475900618336 -0.0087475900618336 -0.007624487684460085 -0.007624487684460085 -0.007624487684460085 -0.007624487684460085 -0.00647129493749301 -0.00647129493749301 -0.00647129493749301 
-0.00647129493749301 -0.005292562945861131 -0.005292562945861131 -0.005292562945861131 -0.005292562945861131 -0.00409294362622395 -0.00409294362622395 -0.00409294362622395 -0.00409294362622395 
-0.00287717132798214 -0.00287717132798214 -0.00287717132798214 -0.00287717132798214 -0.001650044148963334 -0.001650044148963334 -0.001650044148963334 -0.001650044148963334 -0.0004164049995220352 
-0.0004164049995220352 -0.0004164049995220352 -0.0004164049995220352 0.002194532281958243 0.002194532281958243 0.002194532281958243 0.002194532281958243 0.005599375188183963 0.005599375188183963 
0.005599375188183963 0.005599375188183963 0.008982119918653114 0.008982119918653114 0.008982119918653114 0.008982119918653114 0.0123294163253436 0.0123294163253436 0.0123294163253436 
0.0123294163253436 0.01562805415857243 0.01562805415857243 0.01562805415857243 0.01562805415857243 0.01886501520181622 0.01886501520181622 0.01886501520181622 0.01886501520181622 
0.02202752464866409 0.02202752464866409 0.02202752464866409 0.02202752464866409 0.02510310151914243 0.02510310151914243 0.02510310151914243 0.02510310151914243 0.0280796079164409 
0.0280796079164409 0.0280796079164409 0.0280796079164409 0.03094529692964578 0.03094529692964578 0.03094529692964578 0.03094529692964578 0.03368885899343073 0.03368885899343073 
0.03368885899343073 0.03368885899343073 0.03629946652174427 0.03629946652174427 0.03629946652174427 0.03629946652174427 0.03876681663934525 0.03876681663934525 0.03876681663934525 
0.03876681663934525 0.04108117184254462 0.04108117184254462 0.04108117184254462 0.04108117184254462 0.04323339842868358 0.04323339842868358 0.04323339842868358 0.04323339842868358 
0.04521500254268551 0.04521500254268551 0.04521500254268551 0.04521500254268551 0.04701816369842123 0.04701816369842123 0.04701816369842123 0.04701816369842123 0.04863576564259493 
0.04863576564259493 0.04863576564259493 0.04863576564259493 0.05006142443934514 0.05006142443934514 0.05006142443934514 0.05006142443934514 0.05128951366472256 0.05128951366472256 
0.05128951366472256 0.05128951366472256 0.05231518661161523 0.05231518661161523 0.05231518661161523 0.05231518661161523 0.05313439541748716 0.05313439541748716 0.05313439541748716 
0.05313439541748716 0.05374390703944247 0.05374390703944247 0.05374390703944247 0.05374390703944247 0.0541413160135687 0.0541413160135687 0.0541413160135687 0.0541413160135687 
0.05432505394820383 0.05432505394820383 0.05432505394820383 0.05432505394820383 0.05429439571366172 0.05429439571366172 0.05429439571366172 0.05429439571366172 0.05404946230398774 
0.05404946230398774 0.05404946230398774 0.05404946230398774 0.05359122035945056 0.05359122035945056 0.05359122035945056 0.05359122035945056 0.0529214783516542 0.0529214783516542 
0.0529214783516542 0.0529214783516542 0.0520428794463275 0.0520428794463275 0.0520428794463275 0.0520428794463275 0.05095889107195618 0.05095889107195618 0.05095889107195618 
0.05095889107195618 0.0496737912354266 0.0496737912354266 0.0496737912354266 0.0496737912354266 0.04819265163868751 0.04819265163868751 0.04819265163868751 0.04819265163868751 
0.04652131766305843 0.04652131766305843 0.04652131766305843 0.04652131766305843 0.04466638530018179 0.04466638530018179 0.04466638530018179 0.04466638530018179 0.04263517512065573 
0.04263517512065573 0.04263517512065573 0.04263517512065573 0.04043570338308716 0.04043570338308716 0.04043570338308716 0.04043570338308716 0.0380766503975813 0.0380766503975813 
0.0380766503975813 0.0380766503975813 0.03556732626852302 0.03556732626852302 0.03556732626852302 0.03556732626852302 0.03291763415184853 0.03291763415184853 0.03291763415184853 
0.03291763415184853 0.03013803117181332 0.03013803117181332 0.03013803117181332 0.03013803117181332 0.02723948715149967 0.02723948715149967 0.02723948715149967 0.02723948715149967 
0.02423344131993706 0.02423344131993706 0.02423344131993706 0.02423344131993706 0.0211317571666908 0.0211317571666908 0.0211317571666908 0.0211317571666908 0.0179466756220891 
0.0179466756220891 0.0179466756220891 0.0179466756220891 0.01469076674786325 0.01469076674786325 0.01469076674786325 0.01469076674786325 0.01137688012885652 0.01137688012885652 
0.01137688012885652 0.01137688012885652 0.008018094161583337 0.008018094161583337 0.008018094161583337 0.008018094161583337 0.004627664439773116 0.004627664439773116 0.004627664439773116 
0.004627664439773116 0.001218971440597891 0.001218971440597891 0.001218971440597891 0.001218971440597891 -0.002194532281958292 -0.002194532281958292 -0.002194532281958292 -0.002194532281958292 
-0.005599375188184042 -0.005599375188184042 -0.005599375188184042 -0.005599375188184042 -0.008982119918653098 -0.008982119918653098 -0.008982119918653098 -0.008982119918653098 -0.01232941632534358 
-0.01232941632534358 -0.01232941632534358 -0.01232941632534358 -0.01562805415857242 -0.01562805415857242 -0.01562805415857242 -0.01562805415857242 -0.01886501520181628 -0.01886501520181628 
-0.01886501520181628 -0.01886501520181628 -0.02202752464866413 -0.02202752464866413 -0.02202752464866413 -0.02202752464866413 -0.02510310151914246 -0.02510310151914246 -0.02510310151914246 
-0.02510310151914246 -0.02807960791644088 -0.02807960791644088 -0.02807960791644088 -0.02807960791644088 -0.03094529692964576 -0.03094529692964576 -0.03094529692964576 -0.03094529692964576 
-0.0336888589934307 -0.0336888589934307 -0.0336888589934307 -0.0336888589934307 -0.03629946652174423 -0.03629946652174423 -0.03629946652174423 -0.03629946652174423 -0.03876681663934517 
-0.03876681663934517 -0.03876681663934517 -0.03876681663934517 -0.04108117184254445 -0.04108117184254445 -0.04108117184254445 -0.04108117184254445 -0.04323339842868355 -0.04323339842868355 
-0.04323339842868355 -0.04323339842868355 -0.04521500254268565 -0.04521500254268565 -0.04521500254268565 -0.04521500254268565 -0.04701816369842125 -0.04701816369842125 -0.04701816369842125 
-0.04701816369842125 -0.04863576564259501 -0.04863576564259501 -0.04863576564259501 -0.04863576564259501 -0.05006142443934505 -0.05006142443934505 -0.05006142443934505 -0.05006142443934505 
-0.05128951366472257 -0.05128951366472257 -0.05128951366472257 -0.05128951366472257 -0.05231518661161508 -0.05231518661161508 -0.05231518661161508 -0.05231518661161508 -0.05313439541748714 
-0.05313439541748714 -0.05313439541748714 -0.05313439541748714 -0.05374390703944228 -0.05374390703944228 -0.05374390703944228 -0.05374390703944228 -0.05414131601356856 -0.05414131601356856 
-0.05414131601356856 -0.05414131601356856 -0.05432505394820367 -0.05432505394820367 -0.05432505394820367 -0.05432505394820367 -0.05429439571366181 -0.05429439571366181 -0.05429439571366181 
-0.05429439571366181 -0.05404946230398781 -0.05404946230398781 -0.05404946230398781 -0.05404946230398781 -0.05359122035945055 -0.05359122035945055 -0.05359122035945055 -0.05359122035945055 
-0.05292147835165409 -0.05292147835165409 -0.05292147835165409 -0.05292147835165409 -0.05204287944632741 -0.05204287944632741 -0.05204287944632741 -0.05204287944632741 -0.05095889107195607 
-0.05095889107195607 -0.05095889107195607 -0.05095889107195607 -0.04967379123542655 -0.04967379123542655 -0.04967379123542655 -0.04967379123542655 -0.04819265163868731 -0.04819265163868731 
-0.04819265163868731 -0.04819265163868731 -0.04652131766305843 -0.04652131766305843 -0.04652131766305843 -0.04652131766305843 -0.04466638530018188 -0.04466638530018188 -0.04466638530018188 
-0.04466638530018188 -0.04263517512065604 -0.04263517512065604 -0.04263517512065604 -0.04263517512065604 -0.04043570338308732 -0.04043570338308732 -0.04043570338308732 -0.04043570338308732 
-0.03807665039758151 -0.03807665039758151 -0.03807665039758151 -0.03807665039758151 -0.03556732626852301 -0.03556732626852301 -0.03556732626852301 -0.03556732626852301 -0.03291763415184869 
-0.03291763415184869 -0.03291763415184869 -0.03291763415184869 -0.03013803117181325 -0.03013803117181325 -0.03013803117181325 -0.03013803117181325 -0.02723948715149975 -0.02723948715149975 
-0.02723948715149975 -0.02723948715149975 -0.02423344131993709 -0.02423344131993709 -0.02423344131993709 -0.02423344131993709 -0.02113175716669079 -0.02113175716669079 -0.02113175716669079 
-0.02113175716669079 -0.01794667562208929 -0.01794667562208929 -0.01794667562208929 -0.01794667562208929 -0.01469076674786344 -0.01469076674786344 -0.01469076674786344 -0.01469076674786344 
-0.01137688012885665 -0.01137688012885665 -0.01137688012885665 -0.01137688012885665 -0.008018094161583392 -0.008018094161583392 -0.008018094161583392 -0.008018094161583392 -0.004627664439773162 
-0.004627664439773162 -0.004627664439773162 -0.004627664439773162 -0.001218971440597939 -0.001218971440597939 -0.001218971440597939 -0.001218971440597939 0.003561526237371015 0.003561526237371015 
0.003561526237371015 0.003561526237371015 0.009125723916082549 0.009125723916082549 0.009125723916082549 0.009125723916082549 0.01465390653164398 0.01465390653164398 0.01465390653164398 
0.01465390653164398 0.0201242568728581 0.0201242568728581 0.0201242568728581 0.0201242568728581 0.02551518596609341 0.02551518596609341 0.02551518596609341 0.02551518596609341 
0.03080541827710027 0.03080541827710027 0.03080541827710027 0.03080541827710027 0.03597407567582432 0.03597407567582432 0.03597407567582432 0.03597407567582432 0.04100075983284777 
0.04100075983284777 0.04100075983284777 0.04100075983284777 0.04586563272227637 0.04586563272227637 0.04586563272227637 0.04586563272227637 0.05054949491336453 0.05054949491336453 
0.05054949491336453 0.05054949491336453 0.05503386134189718 0.05503386134189718 0.05503386134189718 0.05503386134189718 0.05930103426229297 0.05930103426229297 0.05930103426229297 
0.05930103426229297 0.06333417309252103 0.06333417309252103 0.06333417309252103 0.06333417309252103 0.06711736087618428 0.06711736087618428 0.06711736087618428 0.06711736087618428 
0.07063566709947469 0.07063566709947469 0.07063566709947469 0.07063566709947469 0.07387520661509017 0.07387520661509017 0.07387520661509017 0.07387520661509017 0.07682319444056737 
0.07682319444056737 0.07682319444056737 0.07682319444056737 0.07946799621476686 0.07946799621476686 0.07946799621476686 0.07946799621476686 0.0817991741133805 0.0817991741133805 
0.0817991741133805 0.0817991741133805 0.08380752804225666 0.08380752804225666 0.08380752804225666 0.08380752804225666 0.08548513194596753 0.08548513194596753 0.08548513194596753 
0.08548513194596753 0.08682536508832957 0.08682536508832957 0.08682536508832957 0.08682536508832957 0.08782293818142409 0.08782293818142409 0.08782293818142409 0.08782293818142409 
0.08847391426000047 0.08847391426000047 0.08847391426000047 0.08847391426000047 0.08877572421887926 0.08877572421887926 0.08877572421887926 0.08877572421887926 0.08872717695203666 
0.08872717695203666 0.08872717695203666 0.08872717695203666 0.08832846405335566 0.08832846405335566 0.08832846405335566 0.08832846405335566 0.08758115906049277 0.08758115906049277 
0.08758115906049277 0.08758115906049277 0.08648821124484385 0.08648821124484385 0.08648821124484385 0.08648821124484385 0.08505393397211655 0.08505393397211655 0.08505393397211655 
0.08505393397211655 0.08328398767944768 0.08328398767944768 0.08328398767944768 0.08328398767944768 0.08118535753624269 0.08118535753624269 0.08118535753624269 0.08118535753624269 
0.07876632587690394 0.07876632587690394 0.07876632587690394 0.07876632587690394 0.07603643951424049 0.07603643951424049 0.07603643951424049 0.07603643951424049 0.07300647206255916 
0.07300647206255916 0.07300647206255916 0.07300647206255916 0.06968838141913133 0.06968838141913133 0.06968838141913133 0.06968838141913133 0.0660952625718353 0.0660952625718353 
0.0660952625718353 0.0660952625718353 0.06224129591922126 0.06224129591922126 0.06224129591922126 0.06224129591922126 0.05814169130695749 0.05814169130695749 0.05814169130695749 
0.05814169130695749 0.05381262800151733 0.05381262800151733 0.05381262800151733 0.05381262800151733 0.04927119083800632 0.04927119083800632 0.04927119083800632 0.04927119083800632 
0.04453530279412356 0.04453530279412356 0.04453530279412356 0.04453530279412356 0.03962365425635692 0.03962365425635692 0.03962365425635692 0.03962365425635692 0.03455562925756618 
0.03455562925756618 0.03455562925756618 0.03455562925756618 0.02935122897706113 0.02935122897706113 0.02935122897706113 0.02935122897706113 0.02403099280508461 0.02403099280508461 
0.02403099280508461 0.02403099280508461 0.01861591728322275 0.01861591728322275 0.01861591728322275 0.01861591728322275 0.01312737324064756 0.01312737324064756 0.01312737324064756 
0.01312737324064756 0.007587021453217902 0.007587021453217902 0.007587021453217902 0.007587021453217902 0.002016727158292812 0.002016727158292812 0.002016727158292812 0.002016727158292812 
-0.003561526237371058 -0.003561526237371058 -0.003561526237371058 -0.003561526237371058 -0.009125723916082636 -0.009125723916082636 -0.009125723916082636 -0.009125723916082636 -0.014653906531644 
-0.014653906531644 -0.014653906531644 -0.014653906531644 -0.02012425687285815 -0.02012425687285815 -0.02012425687285815 -0.02012425687285815 -0.02551518596609349 -0.02551518596609349 
-0.02551518596609349 -0.02551518596609349 -0.03080541827710041 -0.03080541827710041 -0.03080541827710041 -0.03080541827710041 -0.03597407567582435 -0.03597407567582435 -0.03597407567582435 
-0.03597407567582435 -0.04100075983284795 -0.04100075983284795 -0.04100075983284795 -0.04100075983284795 -0.04586563272227637 -0.04586563272227637 -0.04586563272227637 -0.04586563272227637 
-0.05054949491336454 -0.05054949491336454 -0.05054949491336454 -0.05054949491336454 -0.05503386134189717 -0.05503386134189717 -0.05503386134189717 -0.05503386134189717 -0.05930103426229302 
-0.05930103426229302 -0.05930103426229302 -0.05930103426229302 -0.06333417309252087 -0.06333417309252087 -0.06333417309252087 -0.06333417309252087 -0.0671173608761844 -0.0671173608761844 
-0.0671173608761844 -0.0671173608761844 -0.07063566709947472 -0.07063566709947472 -0.07063566709947472 -0.07063566709947472 -0.07387520661509006 -0.07387520661509006 -0.07387520661509006 
-0.07387520661509006 -0.07682319444056734 -0.07682319444056734 -0.07682319444056734 -0.07682319444056734 -0.07946799621476679 -0.07946799621476679 -0.07946799621476679 -0.07946799621476679 
-0.08179917411338039 -0.08179917411338039 -0.08179917411338039 -0.08179917411338039 -0.08380752804225672 -0.08380752804225672 -0.08380752804225672 -0.08380752804225672 -0.08548513194596752 
-0.08548513194596752 -0.08548513194596752 -0.08548513194596752 -0.08682536508832961 -0.08682536508832961 -0.08682536508832961 -0.08682536508832961 -0.08782293818142406 -0.08782293818142406 
-0.08782293818142406 -0.08782293818142406 -0.08847391426000047 -0.08847391426000047 -0.08847391426000047 -0.08847391426000047 -0.08877572421887922 -0.08877572421887922 -0.08877572421887922 
-0.08877572421887922 -0.08872717695203636 -0.08872717695203636 -0.08872717695203636 -0.08872717695203636 -0.08832846405335559 -0.08832846405335559 -0.08832846405335559 -0.08832846405335559 
-0.08758115906049271 -0.08758115906049271 -0.08758115906049271 -0.08758115906049271 -0.08648821124484377 -0.08648821124484377 -0.08648821124484377 -0.08648821124484377 -0.08505393397211652 
-0.08505393397211652 -0.08505393397211652 -0.08505393397211652 -0.08328398767944761 -0.08328398767944761 -0.08328398767944761 -0.08328398767944761 -0.0811853575362427 -0.0811853575362427 
-0.0811853575362427 -0.0811853575362427 -0.07876632587690398 -0.07876632587690398 -0.07876632587690398 -0.07876632587690398 -0.07603643951424044 -0.07603643951424044 -0.07603643951424044 
-0.07603643951424044 -0.07300647206255927 -0.07300647206255927 -0.07300647206255927 -0.07300647206255927 -0.06968838141913128 -0.06968838141913128 -0.06968838141913128 -0.06968838141913128 
-0.06609526257183526 -0.06609526257183526 -0.06609526257183526 -0.06609526257183526 -0.06224129591922135 -0.06224129591922135 -0.06224129591922135 -0.06224129591922135 -0.0581416913069576 
-0.0581416913069576 -0.0581416913069576 -0.0581416913069576 -0.05381262800151743 -0.05381262800151743 -0.05381262800151743 -0.05381262800151743 -0.04927119083800633 -0.04927119083800633 
-0.04927119083800633 -0.04927119083800633 -0.04453530279412361 -0.04453530279412361 -0.04453530279412361 -0.04453530279412361 -0.03962365425635704 -0.03962365425635704 -0.03962365425635704 
-0.03962365425635704 -0.03455562925756625 -0.03455562925756625 -0.03455562925756625 -0.03455562925756625 -0.02935122897706116 -0.02935122897706116 -0.02935122897706116 -0.02935122897706116 
-0.02403099280508455 -0.02403099280508455 -0.02403099280508455 -0.02403099280508455 -0.01861591728322273 -0.01861591728322273 -0.01861591728322273 -0.01861591728322273 -0.01312737324064754 
-0.01312737324064754 -0.01312737324064754 -0.01312737324064754 -0.007587021453217946 -0.007587021453217946 -0.007587021453217946 -0.007587021453217946 -0.002016727158292857 -0.002016727158292857 
-0.002016727158292857 -0.002016727158292857 0.004914464475831396 0.004914464475831396 0.004914464475831396 0.004914464475831396 0.012616057580831 0.012616057580831 0.012616057580831 
0.012616057580831 0.02026786087028751 0.02026786087028751 0.02026786087028751 0.02026786087028751 0.02783967617239386 0.02783967617239386 0.02783967617239386 0.02783967617239386 
0.03530162099138588 0.03530162099138588 0.03530162099138588 0.03530162099138588 0.04262424644010152 0.04262424644010152 0.04262424644010152 0.04262424644010152 0.04977865346128398 
0.04977865346128398 0.04977865346128398 0.04977865346128398 0.0567366068789583 0.0567366068789583 0.0567366068789583 0.0567366068789583 0.06347064682977142 0.06347064682977142 
0.06347064682977142 0.06347064682977142 0.06995419713452775 0.06995419713452775 0.06995419713452775 0.06995419713452775 0.0761616701822268 0.0761616701822268 0.0761616701822268 
0.0761616701822268 0.08206856791267395 0.08206856791267395 0.08206856791267395 0.08206856791267395 0.08765157849913202 0.08765157849913202 0.08765157849913202 0.08765157849913202 
0.09288866834945111 0.09288866834945111 0.09288866834945111 0.09288866834945111 0.09775916906259087 0.09775916906259087 0.09775916906259087 0.09775916906259087 0.1022438589973567 
0.1022438589973567 0.1022438589973567 0.1022438589973567 0.1063250391314358 0.1063250391314358 0.1063250391314358 0.1063250391314358 0.1099866029113529 0.1099866029113529 
0.1099866029113529 0.1099866029113529 0.1132140998176783 0.1132140998176783 0.1132140998176783 0.1132140998176783 0.1159947923946255 0.1159947923946255 0.1159947923946255 
0.1159947923946255 0.118317706518971 0.118317706518971 0.118317706518971 0.118317706518971 0.1201736747099044 0.1201736747099044 0.1201736747099044 0.1201736747099044 
0.1215553723088876 0.1215553723088876 0.1215553723088876 0.1215553723088876 0.1224573463867347 0.1224573463867347 0.1224573463867347 0.1224573463867347 0.1228760372638333 
0.1228760372638333 0.1228760372638333 0.1228760372638333 0.1228097925585731 0.1228097925585731 0.1228097925585731 0.1228097925585731 0.1222588737085417 0.1222588737085417 
0.1222588737085417 0.1222588737085417 0.1212254549387489 0.1212254549387489 0.1212254549387489 0.1212254549387489 0.1197136146809552 0.1197136146809552 0.1197136146809552 
0.1197136146809552 0.1177293194779641 0.1177293194779641 0.1177293194779641 0.1177293194779641 0.1152804004364032 0.1152804004364032 0.1152804004364032 0.1152804004364032 
0.112376522320925 0.112376522320925 0.112376522320925 0.112376522320925 0.1090291454117958 0.1090291454117958 0.1090291454117958 0.1090291454117958 0.1052514802764046 
0.1052514802764046 0.1052514802764046 0.1052514802764046 0.10105843563319 0.10105843563319 0.10105843563319 0.10105843563319 0.09646655951373864 0.09646655951373864 
0.09646655951373864 0.09646655951373864 0.09149397395526551 0.09149397395526551 0.09149397395526551 0.09149397395526551 0.08616030348121154 0.08616030348121154 0.08616030348121154 
0.08616030348121154 0.08048659765221554 0.08048659765221554 0.08048659765221554 0.08048659765221554 0.07449524799311524 0.07449524799311524 0.07449524799311524 0.07449524799311524 
0.06820989962382751 0.06820989962382751 0.06820989962382751 0.06820989962382751 0.06165535794286359 0.06165535794286359 0.06165535794286359 0.06165535794286359 0.05485749073175278 
0.05485749073175278 0.05485749073175278 0.05485749073175278 0.04784312606672731 0.04784312606672731 0.04784312606672731 0.04784312606672731 0.04063994644056172 0.04063994644056172 
0.04063994644056172 0.04063994644056172 0.03327637951242043 0.03327637951242043 0.03327637951242043 0.03327637951242043 0.02578148591687558 0.02578148591687558 0.02578148591687558 
0.02578148591687558 0.01818484457485729 0.01818484457485729 0.01818484457485729 0.01818484457485729 0.01051643595916724 0.01051643595916724 0.01051643595916724 0.01051643595916724 
0.002806523775249018 0.002806523775249018 0.002806523775249018 0.002806523775249018 -0.004914464475831449 -0.004914464475831449 -0.004914464475831449 -0.004914464475831449 -0.01261605758083109 
-0.01261605758083109 -0.01261605758083109 -0.01261605758083109 -0.02026786087028761 -0.02026786087028761 -0.02026786087028761 -0.02026786087028761 -0.02783967617239395 -0.02783967617239395 
-0.02783967617239395 -0.02783967617239395 -0.03530162099138601 -0.03530162099138601 -0.03530162099138601 -0.03530162099138601 -0.04262424644010169 -0.04262424644010169 -0.04262424644010169 
-0.04262424644010169 -0.04977865346128398 -0.04977865346128398 -0.04977865346128398 -0.04977865346128398 -0.05673660687895844 -0.05673660687895844 -0.05673660687895844 -0.05673660687895844 
-0.06347064682977152 -0.06347064682977152 -0.06347064682977152 -0.06347064682977152 -0.06995419713452777 -0.06995419713452777 -0.06995419713452777 -0.06995419713452777 -0.07616167018222682 