Title = RSC/Post/Linear_Advection_2D/Sine_Wave_2D/Quad100/
FileType = Solution
Variables = q
Zone T = RSC/Post/Linear_Advection_2D/Sine_Wave_2D/Quad100/
ZoneType = FETriangle
Nodes = 40000
Elements = 20000
DataPacking = Block
StrandID = 9
SolutionTime = 0.8
-0.4659008007069672 -0.4659008007069672 -0.4659008007069672 -0.4659008007069672 -0.4733745889949964 -0.4733745889949964 -0.4733745889949964 -0.4733745889949964 -0.4789801840445407 -0.4789801840445407 
-0.4789801840445407 -0.4789801840445407 -0.4826954631328924 -0.4826954631328924 -0.4826954631328924 -0.4826954631328924 -0.4845057637508396 -0.4845057637508396 -0.4845057637508396 
-0.4845057637508396 -0.4844039414688905 -0.4844039414688905 -0.4844039414688905 -0.4844039414688905 -0.4823903981330735 -0.4823903981330735 -0.4823903981330735 -0.4823903981330735 
-0.478473080279035 -0.478473080279035 -0.478473080279035 -0.478473080279035 -0.4726674477706924 -0.4726674477706924 -0.4726674477706924 -0.4726674477706924 -0.4649964127872153 
-0.4649964127872153 -0.4649964127872153 -0.4649964127872153 -0.4554902493991205 -0.4554902493991205 -0.4554902493991205 -0.4554902493991205 -0.4441864740903485 -0.4441864740903485 
-0.4441864740903485 -0.4441864740903485 -0.431129697697839 -0.431129697697839 -0.431129697697839 -0.431129697697839 -0.4163714493529391 -0.4163714493529391 -0.4163714493529391 
-0.4163714493529391 -0.3999699731194644 -0.3999699731194644 -0.3999699731194644 -0.3999699731194644 -0.3819899981309866 -0.3819899981309866 -0.3819899981309866 -0.3819899981309866 
-0.3625024831345162 -0.3625024831345162 -0.3625024831345162 -0.3625024831345162 -0.3415843364487446 -0.3415843364487446 -0.3415843364487446 -0.3415843364487446 -0.3193181124420491 
-0.3193181124420491 -0.3193181124420491 -0.3193181124420491 -0.2957916857281132 -0.2957916857281132 -0.2957916857281132 -0.2957916857281132 -0.2710979043649759 -0.2710979043649759 
-0.2710979043649759 -0.2710979043649759 -0.2453342234261616 -0.2453342234261616 -0.2453342234261616 -0.2453342234261616 -0.2186023203900295 -0.2186023203900295 -0.2186023203900295 
-0.2186023203900295 -0.1910076938652185 -0.1910076938652185 -0.1910076938652185 -0.1910076938652185 -0.162659247235836 -0.162659247235836 -0.162659247235836 -0.162659247235836 
-0.133668858869555 -0.133668858869555 -0.133668858869555 -0.133668858869555 -0.1041509405848087 -0.1041509405848087 -0.1041509405848087 -0.1041509405848087 -0.07422198611961289 
-0.07422198611961289 -0.07422198611961289 -0.07422198611961289 -0.04400011138400313 -0.04400011138400313 -0.04400011138400313 -0.04400011138400313 -0.01360458831049953 -0.01360458831049953 
-0.01360458831049953 -0.01360458831049953 0.01684462585772075 0.01684462585772075 0.01684462585772075 0.01684462585772075 0.04722736198325826 0.04722736198325826 0.04722736198325826 
0.04722736198325826 0.07742371328717662 0.07742371328717662 0.07742371328717662 0.07742371328717662 0.1073145085662807 0.1073145085662807 0.1073145085662807 0.1073145085662807 
0.1367817825074091 0.1367817825074091 0.1367817825074091 0.1367817825074091 0.1657092412426333 0.1657092412426333 0.1657092412426333 0.1657092412426333 0.1939827213080239 
0.1939827213080239 0.1939827213080239 0.1939827213080239 0.2214906401946872 0.2214906401946872 0.2214906401946872 0.2214906401946872 0.2481244367139503 0.2481244367139503 
0.2481244367139503 0.2481244367139503 0.2737789994387757 0.2737789994387757 0.2737789994387757 0.2737789994387757 0.2983530815305436 0.2983530815305436 0.2983530815305436 
0.2983530815305436 0.321749700314068 0.321749700314068 0.321749700314068 0.321749700314068 0.3438765200239096 0.3438765200239096 0.3438765200239096 0.3438765200239096 
0.3646462162114537 0.3646462162114537 0.3646462162114537 0.3646462162114537 0.3839768203746207 0.3839768203746207 0.3839768203746207 0.3839768203746207 0.4017920434500921 
0.4017920434500921 0.4017920434500921 0.4017920434500921 0.4180215768913902 0.4180215768913902 0.4180215768913902 0.4180215768913902 0.4326013701445905 0.4326013701445905 
0.4326013701445905 0.4326013701445905 0.4454738834265968 0.4454738834265968 0.4454738834265968 0.4454738834265968 0.4565883148083767 0.4565883148083767 0.4565883148083767 
0.4565883148083767 0.4659008007069672 0.4659008007069672 0.4659008007069672 0.4659008007069672 0.4733745889949966 0.4733745889949966 0.4733745889949966 0.4733745889949966 
0.4789801840445408 0.4789801840445408 0.4789801840445408 0.4789801840445408 0.4826954631328927 0.4826954631328927 0.4826954631328927 0.4826954631328927 0.4845057637508393 
0.4845057637508393 0.4845057637508393 0.4845057637508393 0.4844039414688899 0.4844039414688899 0.4844039414688899 0.4844039414688899 0.4823903981330729 0.4823903981330729 
0.4823903981330729 0.4823903981330729 0.4784730802790338 0.4784730802790338 0.4784730802790338 0.4784730802790338 0.4726674477706931 0.4726674477706931 0.4726674477706931 
0.4726674477706931 0.4649964127872155 0.4649964127872155 0.4649964127872155 0.4649964127872155 0.4554902493991205 0.4554902493991205 0.4554902493991205 0.4554902493991205 
0.4441864740903485 0.4441864740903485 0.4441864740903485 0.4441864740903485 0.4311296976978388 0.4311296976978388 0.4311296976978388 0.4311296976978388 0.416371449352939 
0.416371449352939 0.416371449352939 0.416371449352939 0.3999699731194659 0.3999699731194659 0.3999699731194659 0.3999699731194659 0.3819899981309874 0.3819899981309874 
0.3819899981309874 0.3819899981309874 0.3625024831345163 0.3625024831345163 0.3625024831345163 0.3625024831345163 0.3415843364487446 0.3415843364487446 0.3415843364487446 
0.3415843364487446 0.3193181124420489 0.3193181124420489 0.3193181124420489 0.3193181124420489 0.2957916857281135 0.2957916857281135 0.2957916857281135 0.2957916857281135 
0.2710979043649759 0.2710979043649759 0.2710979043649759 0.2710979043649759 0.2453342234261615 0.2453342234261615 0.2453342234261615 0.2453342234261615 0.2186023203900292 
0.2186023203900292 0.2186023203900292 0.2186023203900292 0.191007693865218 0.191007693865218 0.191007693865218 0.191007693865218 0.1626592472358356 0.1626592472358356 
0.1626592472358356 0.1626592472358356 0.1336688588695548 0.1336688588695548 0.1336688588695548 0.1336688588695548 0.1041509405848086 0.1041509405848086 0.1041509405848086 
0.1041509405848086 0.07422198611961281 0.07422198611961281 0.07422198611961281 0.07422198611961281 0.04400011138400291 0.04400011138400291 0.04400011138400291 0.04400011138400291 
0.01360458831049911 0.01360458831049911 0.01360458831049911 0.01360458831049911 -0.01684462585772105 -0.01684462585772105 -0.01684462585772105 -0.01684462585772105 -0.04722736198325833 
-0.04722736198325833 -0.04722736198325833 -0.04722736198325833 -0.07742371328717695 -0.07742371328717695 -0.07742371328717695 -0.07742371328717695 -0.1073145085662811 -0.1073145085662811 
-0.1073145085662811 -0.1073145085662811 -0.1367817825074095 -0.1367817825074095 -0.1367817825074095 -0.1367817825074095 -0.1657092412426333 -0.1657092412426333 -0.1657092412426333 
-0.1657092412426333 -0.193982721308024 -0.193982721308024 -0.193982721308024 -0.193982721308024 -0.221490640194687 -0.221490640194687 -0.221490640194687 -0.221490640194687 
-0.2481244367139502 -0.2481244367139502 -0.2481244367139502 -0.2481244367139502 -0.2737789994387754 -0.2737789994387754 -0.2737789994387754 -0.2737789994387754 -0.2983530815305439 
-0.2983530815305439 -0.2983530815305439 -0.2983530815305439 -0.3217497003140681 -0.3217497003140681 -0.3217497003140681 -0.3217497003140681 -0.3438765200239089 -0.3438765200239089 
-0.3438765200239089 -0.3438765200239089 -0.3646462162114538 -0.3646462162114538 -0.3646462162114538 -0.3646462162114538 -0.3839768203746213 -0.3839768203746213 -0.3839768203746213 
-0.3839768203746213 -0.4017920434500923 -0.4017920434500923 -0.4017920434500923 -0.4017920434500923 -0.4180215768913902 -0.4180215768913902 -0.4180215768913902 -0.4180215768913902 
-0.4326013701445905 -0.4326013701445905 -0.4326013701445905 -0.4326013701445905 -0.4454738834265968 -0.4454738834265968 -0.4454738834265968 -0.4454738834265968 -0.4565883148083768 
-0.4565883148083768 -0.4565883148083768 -0.4565883148083768 -0.502566430292346 -0.502566430292346 -0.502566430292346 -0.502566430292346 -0.5106285368676349 -0.5106285368676349 
-0.5106285368676349 -0.5106285368676349 -0.5166754258918952 -0.5166754258918952 -0.5166754258918952 -0.5166754258918952 -0.520683233056709 -0.520683233056709 -0.520683233056709 
-0.520683233056709 -0.5226361413781905 -0.5226361413781905 -0.5226361413781905 -0.5226361413781905 -0.5225264436193928 -0.5225264436193928 -0.5225264436193928 -0.5225264436193928 
-0.5203545727072543 -0.5203545727072543 -0.5203545727072543 -0.5203545727072543 -0.5161291000240315 -0.5161291000240315 -0.5161291000240315 -0.5161291000240315 -0.5098667015799699 
-0.5098667015799699 -0.5098667015799699 -0.5098667015799699 -0.5015920922007111 -0.5015920922007111 -0.5015920922007111 -0.5015920922007111 -0.4913379279891654 -0.4913379279891654 
-0.4913379279891654 -0.4913379279891654 -0.4791446774467937 -0.4791446774467937 -0.4791446774467937 -0.4791446774467937 -0.4650604617629204 -0.4650604617629204 -0.4650604617629204 
-0.4650604617629204 -0.4491408649023841 -0.4491408649023841 -0.4491408649023841 -0.4491408649023841 -0.4314487142410208 -0.4314487142410208 -0.4314487142410208 -0.4314487142410208 
-0.4120538326147163 -0.4120538326147163 -0.4120538326147163 -0.4120538326147163 -0.3910327627605714 -0.3910327627605714 -0.3910327627605714 -0.3910327627605714 -0.3684684652376864 
-0.3684684652376864 -0.3684684652376864 -0.3684684652376864 -0.3444499910197377 -0.3444499910197377 -0.3444499910197377 -0.3444499910197377 -0.3190721300514657 -0.3190721300514657 
-0.3190721300514657 -0.3190721300514657 -0.2924350371560714 -0.2924350371560714 -0.2924350371560714 -0.2924350371560714 -0.2646438367698821 -0.2646438367698821 -0.2646438367698821 
-0.2646438367698821 -0.2358082080642306 -0.2358082080642306 -0.2358082080642306 -0.2358082080642306 -0.2060419520918725 -0.2060419520918725 -0.2060419520918725 -0.2060419520918725 
-0.1754625426662216 -0.1754625426662216 -0.1754625426662216 -0.1754625426662216 -0.1441906627458777 -0.1441906627458777 -0.1441906627458777 -0.1441906627458777 -0.1123497281541239 
-0.1123497281541239 -0.1123497281541239 -0.1123497281541239 -0.08006540051305408 -0.08006540051305408 -0.08006540051305408 -0.08006540051305408 -0.04746509131456132 -0.04746509131456132 
-0.04746509131456132 -0.04746509131456132 -0.01467745908538769 -0.01467745908538769 -0.01467745908538769 -0.01467745908538769 0.01816809836930313 0.01816809836930313 0.01816809836930313 
0.01816809836930313 0.05094195463994519 0.05094195463994519 0.05094195463994519 0.05094195463994519 0.08351476628878808 0.08351476628878808 0.08351476628878808 0.08351476628878808 
0.115757983309357 0.115757983309357 0.115757983309357 0.115757983309357 0.1475443564545956 0.1475443564545956 0.1475443564545956 0.1475443564545956 0.1787484394315127 
0.1787484394315127 0.1787484394315127 0.1787484394315127 0.2092470839803875 0.2092470839803875 0.2092470839803875 0.2092470839803875 0.2389199258846914 0.2389199258846914 
0.2389199258846914 0.2389199258846914 0.26764985999366 0.26764985999366 0.26764985999366 0.26764985999366 0.2953235023828232 0.2953235023828232 0.2953235023828232 
0.2953235023828232 0.3218316378285557 0.3218316378285557 0.3218316378285557 0.3218316378285557 0.3470696508306687 0.3470696508306687 0.3470696508306687 0.3470696508306687 
0.3709379384819942 0.3709379384819942 0.3709379384819942 0.3709379384819942 0.3933423035555555 0.3933423035555555 0.3933423035555555 0.3933423035555555 0.4141943262579877 
0.4141943262579877 0.4141943262579877 0.4141943262579877 0.4334117131820677 0.4334117131820677 0.4334117131820677 0.4334117131820677 0.4509186220811949 0.4509186220811949 
0.4509186220811949 0.4509186220811949 0.4666459611840906 0.4666459611840906 0.4666459611840906 0.4666459611840906 0.4805316618684534 0.4805316618684534 0.4805316618684534 
0.4805316618684534 0.4925209236174555 0.4925209236174555 0.4925209236174555 0.4925209236174555 0.502566430292346 0.502566430292346 0.502566430292346 0.502566430292346 
0.5106285368676349 0.5106285368676349 0.5106285368676349 0.5106285368676349 0.5166754258918952 0.5166754258918952 0.5166754258918952 0.5166754258918952 0.5206832330567092 
0.5206832330567092 0.5206832330567092 0.5206832330567092 0.5226361413781903 0.5226361413781903 0.5226361413781903 0.5226361413781903 0.5225264436193928 0.5225264436193928 
0.5225264436193928 0.5225264436193928 0.520354572707254 0.520354572707254 0.520354572707254 0.520354572707254 0.5161291000240309 0.5161291000240309 0.5161291000240309 
0.5161291000240309 0.5098667015799699 0.5098667015799699 0.5098667015799699 0.5098667015799699 0.5015920922007112 0.5015920922007112 0.5015920922007112 0.5015920922007112 
0.4913379279891655 0.4913379279891655 0.4913379279891655 0.4913379279891655 0.4791446774467937 0.4791446774467937 0.4791446774467937 0.4791446774467937 0.4650604617629206 
0.4650604617629206 0.4650604617629206 0.4650604617629206 0.4491408649023841 0.4491408649023841 0.4491408649023841 0.4491408649023841 0.4314487142410215 0.4314487142410215 
0.4314487142410215 0.4314487142410215 0.4120538326147172 0.4120538326147172 0.4120538326147172 0.4120538326147172 0.3910327627605713 0.3910327627605713 0.3910327627605713 
0.3910327627605713 0.3684684652376865 0.3684684652376865 0.3684684652376865 0.3684684652376865 0.3444499910197372 0.3444499910197372 0.3444499910197372 0.3444499910197372 
0.319072130051466 0.319072130051466 0.319072130051466 0.319072130051466 0.2924350371560707 0.2924350371560707 0.2924350371560707 0.2924350371560707 0.2646438367698821 
0.2646438367698821 0.2646438367698821 0.2646438367698821 0.2358082080642303 0.2358082080642303 0.2358082080642303 0.2358082080642303 0.2060419520918728 0.2060419520918728 
0.2060419520918728 0.2060419520918728 0.1754625426662218 0.1754625426662218 0.1754625426662218 0.1754625426662218 0.1441906627458782 0.1441906627458782 0.1441906627458782 
0.1441906627458782 0.1123497281541239 0.1123497281541239 0.1123497281541239 0.1123497281541239 0.08006540051305383 0.08006540051305383 0.08006540051305383 0.08006540051305383 
0.04746509131456096 0.04746509131456096 0.04746509131456096 0.04746509131456096 0.01467745908538707 0.01467745908538707 0.01467745908538707 0.01467745908538707 -0.01816809836930363 
-0.01816809836930363 -0.01816809836930363 -0.01816809836930363 -0.05094195463994529 -0.05094195463994529 -0.05094195463994529 -0.05094195463994529 -0.08351476628878798 -0.08351476628878798 
-0.08351476628878798 -0.08351476628878798 -0.1157579833093565 -0.1157579833093565 -0.1157579833093565 -0.1157579833093565 -0.1475443564545951 -0.1475443564545951 -0.1475443564545951 
-0.1475443564545951 -0.1787484394315121 -0.1787484394315121 -0.1787484394315121 -0.1787484394315121 -0.2092470839803877 -0.2092470839803877 -0.2092470839803877 -0.2092470839803877 
-0.2389199258846914 -0.2389199258846914 -0.2389199258846914 -0.2389199258846914 -0.2676498599936602 -0.2676498599936602 -0.2676498599936602 -0.2676498599936602 -0.2953235023828231 
-0.2953235023828231 -0.2953235023828231 -0.2953235023828231 -0.3218316378285564 -0.3218316378285564 -0.3218316378285564 -0.3218316378285564 -0.3470696508306688 -0.3470696508306688 
-0.3470696508306688 -0.3470696508306688 -0.3709379384819938 -0.3709379384819938 -0.3709379384819938 -0.3709379384819938 -0.393342303555555 -0.393342303555555 -0.393342303555555 
-0.393342303555555 -0.4141943262579872 -0.4141943262579872 -0.4141943262579872 -0.4141943262579872 -0.4334117131820674 -0.4334117131820674 -0.4334117131820674 -0.4334117131820674 
-0.4509186220811949 -0.4509186220811949 -0.4509186220811949 -0.4509186220811949 -0.4666459611840908 -0.4666459611840908 -0.4666459611840908 -0.4666459611840908 -0.4805316618684535 
-0.4805316618684535 -0.4805316618684535 -0.4805316618684535 -0.4925209236174555 -0.4925209236174555 -0.4925209236174555 -0.4925209236174555 -0.5372486597781234 -0.5372486597781234 
-0.5372486597781234 -0.5372486597781234 -0.5458672671892451 -0.5458672671892451 -0.5458672671892451 -0.5458672671892451 -0.5523315858798032 -0.5523315858798032 -0.5523315858798032 
-0.5523315858798032 -0.5566161041371933 -0.5566161041371933 -0.5566161041371933 -0.5566161041371933 -0.5587039129252629 -0.5587039129252629 -0.5587039129252629 -0.5587039129252629 
-0.5585867726165548 -0.5585867726165548 -0.5585867726165548 -0.5585867726165548 -0.5562651455103511 -0.5562651455103511 -0.5562651455103511 -0.5562651455103511 -0.5517481940081894 
-0.5517481940081894 -0.5517481940081894 -0.5517481940081894 -0.54505374445405 -0.54505374445405 -0.54505374445405 -0.54505374445405 -0.53620821678192 -0.53620821678192 
-0.53620821678192 -0.53620821678192 -0.525246520248384 -0.525246520248384 -0.525246520248384 -0.525246520248384 -0.5122119156617373 -0.5122119156617373 -0.5122119156617373 
-0.5122119156617373 -0.4971558446513387 -0.4971558446513387 -0.4971558446513387 -0.4971558446513387 -0.480137726651002 -0.480137726651002 -0.480137726651002 -0.480137726651002 
-0.4612247243976357 -0.4612247243976357 -0.4612247243976357 -0.4612247243976357 -0.4404914788706052 -0.4404914788706052 -0.4404914788706052 -0.4404914788706052 -0.4180198147178867 
-0.4180198147178867 -0.4180198147178867 -0.4180198147178867 -0.3938984173315646 -0.3938984173315646 -0.3938984173315646 -0.3938984173315646 -0.3682224828471036 -0.3682224828471036 
-0.3682224828471036 -0.3682224828471036 -0.3410933424476955 -0.3410933424476955 -0.3410933424476955 -0.3410933424476955 -0.3126180624563719 -0.3126180624563719 -0.3126180624563719 
-0.3126180624563719 -0.2829090217941403 -0.2829090217941403 -0.2829090217941403 -0.2829090217941403 -0.252083468471725 -0.252083468471725 -0.252083468471725 -0.252083468471725 
-0.220263056865234 -0.220263056865234 -0.220263056865234 -0.220263056865234 -0.1875733676019144 -0.1875733676019144 -0.1875733676019144 -0.1875733676019144 -0.1541434119507901 
-0.1541434119507901 -0.1541434119507901 -0.1541434119507901 -0.120105122674123 -0.120105122674123 -0.120105122674123 -0.120105122674123 -0.0855928333490717 -0.0855928333490717 
-0.0855928333490717 -0.0855928333490717 -0.05074274821443797 -0.05074274821443797 -0.05074274821443797 -0.05074274821443797 -0.0156924046347587 -0.0156924046347587 -0.0156924046347587 
-0.0156924046347587 0.01941986969683669 0.01941986969683669 0.01941986969683669 0.01941986969683669 0.0544555026748336 0.0544555026748336 0.0544555026748336 0.0544555026748336 
0.08927622466212529 0.08927622466212529 0.08927622466212529 0.08927622466212529 0.1237446141771027 0.1237446141771027 0.1237446141771027 0.1237446141771027 0.1577246402334599 
0.1577246402334599 0.1577246402334599 0.1577246402334599 0.1910821991923496 0.1910821991923496 0.1910821991923496 0.1910821991923496 0.2236856440081799 0.2236856440081799 
0.2236856440081799 0.2236856440081799 0.2554063037793602 0.2554063037793602 0.2554063037793602 0.2554063037793602 0.2861189915535644 0.2861189915535644 0.2861189915535644 
0.2861189915535644 0.3157024983834398 0.3157024983834398 0.3157024983834398 0.3157024983834398 0.3440400716829481 0.3440400716829481 0.3440400716829481 0.3440400716829481 
0.3710198759964816 0.3710198759964816 0.3710198759964816 0.3710198759964816 0.3965354343623149 0.3965354343623149 0.3965354343623149 0.3965354343623149 0.4204860485285282 
0.4204860485285282 0.4204860485285282 0.4204860485285282 0.4427771963630017 0.4427771963630017 0.4427771963630017 0.4427771963630017 0.4633209048890901 0.4633209048890901 
0.4633209048890901 0.4633209048890901 0.4820360974747676 0.4820360974747676 0.4820360974747676 0.4820360974747676 0.4988489138050576 0.4988489138050576 0.4988489138050576 
0.4988489138050576 0.5136930013749492 0.5136930013749492 0.5136930013749492 0.5136930013749492 0.5265097773524228 0.5265097773524228 0.5265097773524228 0.5265097773524228 
0.5372486597781232 0.5372486597781232 0.5372486597781232 0.5372486597781232 0.5458672671892451 0.5458672671892451 0.5458672671892451 0.5458672671892451 0.5523315858798032 
0.5523315858798032 0.5523315858798032 0.5523315858798032 0.5566161041371933 0.5566161041371933 0.5566161041371933 0.5566161041371933 0.5587039129252628 0.5587039129252628 
0.5587039129252628 0.5587039129252628 0.5585867726165545 0.5585867726165545 0.5585867726165545 0.5585867726165545 0.5562651455103507 0.5562651455103507 0.5562651455103507 
0.5562651455103507 0.5517481940081892 0.5517481940081892 0.5517481940081892 0.5517481940081892 0.5450537444540499 0.5450537444540499 0.5450537444540499 0.5450537444540499 
0.53620821678192 0.53620821678192 0.53620821678192 0.53620821678192 0.5252465202483841 0.5252465202483841 0.5252465202483841 0.5252465202483841 0.5122119156617374 
0.5122119156617374 0.5122119156617374 0.5122119156617374 0.4971558446513389 0.4971558446513389 0.4971558446513389 0.4971558446513389 0.4801377266510022 0.4801377266510022 
0.4801377266510022 0.4801377266510022 0.4612247243976356 0.4612247243976356 0.4612247243976356 0.4612247243976356 0.4404914788706051 0.4404914788706051 0.4404914788706051 
0.4404914788706051 0.4180198147178869 0.4180198147178869 0.4180198147178869 0.4180198147178869 0.3938984173315648 0.3938984173315648 0.3938984173315648 0.3938984173315648 
0.368222482847104 0.368222482847104 0.368222482847104 0.368222482847104 0.341093342447696 0.341093342447696 0.341093342447696 0.341093342447696 0.312618062456372 
0.312618062456372 0.312618062456372 0.312618062456372 0.2829090217941402 0.2829090217941402 0.2829090217941402 0.2829090217941402 0.252083468471725 0.252083468471725 
0.252083468471725 0.252083468471725 0.220263056865234 0.220263056865234 0.220263056865234 0.220263056865234 0.1875733676019142 0.1875733676019142 0.1875733676019142 
0.1875733676019142 0.1541434119507901 0.1541434119507901 0.1541434119507901 0.1541434119507901 0.1201051226741228 0.1201051226741228 0.1201051226741228 0.1201051226741228 
0.08559283334907165 0.08559283334907165 0.08559283334907165 0.08559283334907165 0.0507427482144381 0.0507427482144381 0.0507427482144381 0.0507427482144381 0.01569240463475833 
0.01569240463475833 0.01569240463475833 0.01569240463475833 -0.0194198696968371 -0.0194198696968371 -0.0194198696968371 -0.0194198696968371 -0.05445550267483377 -0.05445550267483377 
-0.05445550267483377 -0.05445550267483377 -0.08927622466212487 -0.08927622466212487 -0.08927622466212487 -0.08927622466212487 -0.1237446141771022 -0.1237446141771022 -0.1237446141771022 
-0.1237446141771022 -0.1577246402334601 -0.1577246402334601 -0.1577246402334601 -0.1577246402334601 -0.1910821991923499 -0.1910821991923499 -0.1910821991923499 -0.1910821991923499 
-0.2236856440081803 -0.2236856440081803 -0.2236856440081803 -0.2236856440081803 -0.2554063037793605 -0.2554063037793605 -0.2554063037793605 -0.2554063037793605 -0.2861189915535642 
-0.2861189915535642 -0.2861189915535642 -0.2861189915535642 -0.3157024983834399 -0.3157024983834399 -0.3157024983834399 -0.3157024983834399 -0.3440400716829484 -0.3440400716829484 
-0.3440400716829484 -0.3440400716829484 -0.371019875996482 -0.371019875996482 -0.371019875996482 -0.371019875996482 -0.396535434362315 -0.396535434362315 -0.396535434362315 
-0.396535434362315 -0.4204860485285282 -0.4204860485285282 -0.4204860485285282 -0.4204860485285282 -0.4427771963630019 -0.4427771963630019 -0.4427771963630019 -0.4427771963630019 
-0.4633209048890902 -0.4633209048890902 -0.4633209048890902 -0.4633209048890902 -0.4820360974747676 -0.4820360974747676 -0.4820360974747676 -0.4820360974747676 -0.4988489138050581 
-0.4988489138050581 -0.4988489138050581 -0.4988489138050581 -0.5136930013749494 -0.5136930013749494 -0.5136930013749494 -0.5136930013749494 -0.5265097773524229 -0.5265097773524229 
-0.5265097773524229 -0.5265097773524229 -0.5698106142493218 -0.5698106142493218 -0.5698106142493218 -0.5698106142493218 -0.5789517087902919 -0.5789517087902919 -0.5789517087902919 
-0.5789517087902919 -0.5858079454345431 -0.5858079454345431 -0.5858079454345431 -0.5858079454345431 -0.5903522657483571 -0.5903522657483571 -0.5903522657483571 -0.5903522657483571 
-0.5925667353755575 -0.5925667353755575 -0.5925667353755575 -0.5925667353755575 -0.5924426148162211 -0.5924426148162211 -0.5924426148162211 -0.5924426148162211 -0.58998039391749 
-0.58998039391749 -0.58998039391749 -0.58998039391749 -0.5851897899403699 -0.5851897899403699 -0.5851897899403699 -0.5851897899403699 -0.5780897092101396 -0.5780897092101396 
-0.5780897092101396 -0.5780897092101396 -0.5687081725017231 -0.5687081725017231 -0.5687081725017231 -0.5687081725017231 -0.5570822044544919 -0.5570822044544919 -0.5570822044544919 
-0.5570822044544919 -0.5432576874529291 -0.5432576874529291 -0.5432576874529291 -0.5432576874529291 -0.5272891805498187 -0.5272891805498187 -0.5272891805498187 -0.5272891805498187 
-0.5092397041465904 -0.5092397041465904 -0.5092397041465904 -0.5092397041465904 -0.4891804912805864 -0.4891804912805864 -0.4891804912805864 -0.4891804912805864 -0.4671907065008061 
-0.4671907065008061 -0.4671907065008061 -0.4671907065008061 -0.4433571334415985 -0.4433571334415985 -0.4433571334415985 -0.4433571334415985 -0.417773832327304 -0.417773832327304 
-0.417773832327304 -0.417773832327304 -0.3905417687595228 -0.3905417687595228 -0.3905417687595228 -0.3905417687595228 -0.3617684152520094 -0.3617684152520094 -0.3617684152520094 
-0.3617684152520094 -0.3315673270857644 -0.3315673270857644 -0.3315673270857644 -0.3315673270857644 -0.3000576941582148 -0.3000576941582148 -0.3000576941582148 -0.3000576941582148 
-0.2673638705951435 -0.2673638705951435 -0.2673638705951435 -0.2673638705951435 -0.2336148839817671 -0.2336148839817671 -0.2336148839817671 -0.2336148839817671 -0.1989439261498027 
-0.1989439261498027 -0.1989439261498027 -0.1989439261498027 -0.1634878275301592 -0.1634878275301592 -0.1634878275301592 -0.1634878275301592 -0.1273865171457385 -0.1273865171457385 
-0.1273865171457385 -0.1273865171457385 -0.09078247037550699 -0.09078247037550699 -0.09078247037550699 -0.09078247037550699 -0.05382014666926908 -0.05382014666926908 -0.05382014666926908 
-0.05382014666926908 -0.01664541943221442 -0.01664541943221442 -0.01664541943221442 -0.01664541943221442 0.02059499967077119 0.02059499967077119 0.02059499967077119 0.02059499967077119 
0.05775413971901701 0.05775413971901701 0.05775413971901701 0.05775413971901701 0.09468535056314811 0.09468535056314811 0.09468535056314811 0.09468535056314811 0.1312428815862283 
0.1312428815862283 0.1312428815862283 0.1312428815862283 0.1672824569148567 0.1672824569148567 0.1672824569148567 0.1672824569148567 0.2026618448101273 0.2026618448101273 
0.2026618448101273 0.2026618448101273 0.2372414189913223 0.2372414189913223 0.2372414189913223 0.2372414189913223 0.2708847096770528 0.2708847096770528 0.2708847096770528 
0.2708847096770528 0.3034589421691403 0.3034589421691403 0.3034589421691403 0.3034589421691403 0.3348355608536895 0.3348355608536895 0.3348355608536895 0.3348355608536895 
0.3648907365513659 0.3648907365513659 0.3648907365513659 0.3648907365513659 0.3935058552145945 0.3935058552145945 0.3935058552145945 0.3935058552145945 0.4205679860430157 
0.4205679860430157 0.4205679860430157 0.4205679860430157 0.4459703271697615 0.4459703271697615 0.4459703271697615 0.4459703271697615 0.4696126271596307 0.4696126271596307 
0.4696126271596307 0.4696126271596307 0.4914015806557022 0.4914015806557022 0.4914015806557022 0.4914015806557022 0.5112511966129527 0.5112511966129527 0.5112511966129527 
0.5112511966129527 0.5290831376656262 0.5290831376656262 0.5290831376656262 0.5290831376656262 0.5448270292890268 0.5448270292890268 0.5448270292890268 0.5448270292890268 
0.5584207375356168 0.5584207375356168 0.5584207375356168 0.5584207375356168 0.5698106142493218 0.5698106142493218 0.5698106142493218 0.5698106142493218 0.5789517087902919 
0.5789517087902919 0.5789517087902919 0.5789517087902919 0.5858079454345432 0.5858079454345432 0.5858079454345432 0.5858079454345432 0.5903522657483572 0.5903522657483572 
0.5903522657483572 0.5903522657483572 0.5925667353755576 0.5925667353755576 0.5925667353755576 0.5925667353755576 0.592442614816221 0.592442614816221 0.592442614816221 
0.592442614816221 0.5899803939174899 0.5899803939174899 0.5899803939174899 0.5899803939174899 0.5851897899403694 0.5851897899403694 0.5851897899403694 0.5851897899403694 
0.5780897092101397 0.5780897092101397 0.5780897092101397 0.5780897092101397 0.5687081725017231 0.5687081725017231 0.5687081725017231 0.5687081725017231 0.5570822044544921 
0.5570822044544921 0.5570822044544921 0.5570822044544921 0.5432576874529291 0.5432576874529291 0.5432576874529291 0.5432576874529291 0.5272891805498192 0.5272891805498192 
0.5272891805498192 0.5272891805498192 0.5092397041465904 0.5092397041465904 0.5092397041465904 0.5092397041465904 0.4891804912805866 0.4891804912805866 0.4891804912805866 
0.4891804912805866 0.4671907065008066 0.4671907065008066 0.4671907065008066 0.4671907065008066 0.4433571334415989 0.4433571334415989 0.4433571334415989 0.4433571334415989 
0.4177738323273045 0.4177738323273045 0.4177738323273045 0.4177738323273045 0.3905417687595232 0.3905417687595232 0.3905417687595232 0.3905417687595232 0.3617684152520096 
0.3617684152520096 0.3617684152520096 0.3617684152520096 0.3315673270857645 0.3315673270857645 0.3315673270857645 0.3315673270857645 0.3000576941582146 0.3000576941582146 
0.3000576941582146 0.3000576941582146 0.2673638705951437 0.2673638705951437 0.2673638705951437 0.2673638705951437 0.2336148839817669 0.2336148839817669 0.2336148839817669 
0.2336148839817669 0.1989439261498026 0.1989439261498026 0.1989439261498026 0.1989439261498026 0.1634878275301596 0.1634878275301596 0.1634878275301596 0.1634878275301596 
0.1273865171457382 0.1273865171457382 0.1273865171457382 0.1273865171457382 0.09078247037550707 0.09078247037550707 0.09078247037550707 0.09078247037550707 0.05382014666926906 