Title = RSC/Post/Linear_Advection_2D/Sine_Wave_2D/Quad100/
FileType = Solution
Variables = q
Zone T = RSC/Post/Linear_Advection_2D/Sine_Wave_2D/Quad100/
ZoneType = FETriangle
Nodes = 40000
Elements = 20000
DataPacking = Block
StrandID = 11
SolutionTime = 1
-0.000910353136155571 -0.000910353136155571 -0.000910353136155571 -0.000910353136155571 -0.002471034191417032 -0.002471034191417032 -0.002471034191417032 -0.002471034191417032 -0.004021963203633106 -0.004021963203633106 
-0.004021963203633106 -0.004021963203633106 -0.005557019364544646 -0.005557019364544646 -0.005557019364544646 -0.005557019364544646 -0.007070144508784975 -0.007070144508784975 -0.007070144508784975 
-0.007070144508784975 -0.008555367022690937 -0.008555367022690937 -0.008555367022690937 -0.008555367022690937 -0.01000682541153374 -0.01000682541153374 -0.01000682541153374 -0.01000682541153374 
-0.01141879143216088 -0.01141879143216088 -0.01141879143216088 -0.01141879143216088 -0.01278569269975486 -0.01278569269975486 -0.01278569269975486 -0.01278569269975486 -0.01410213467949028 
-0.01410213467949028 -0.01410213467949028 -0.01410213467949028 -0.01536292197629825 -0.01536292197629825 -0.01536292197629825 -0.01536292197629825 -0.01656307883871719 -0.01656307883871719 
-0.01656307883871719 -0.01656307883871719 -0.01769786879591072 -0.01769786879591072 -0.01769786879591072 -0.01769786879591072 -0.01876281335035382 -0.01876281335035382 -0.01876281335035382 
-0.01876281335035382 -0.01975370965241718 -0.01975370965241718 -0.01975370965241718 -0.01975370965241718 -0.02066664708709396 -0.02066664708709396 -0.02066664708709396 -0.02066664708709396 
-0.02149802270741091 -0.02149802270741091 -0.02149802270741091 -0.02149802270741091 -0.02224455545361408 -0.02224455545361408 -0.02224455545361408 -0.02224455545361408 -0.02290329910201255 
-0.02290329910201255 -0.02290329910201255 -0.02290329910201255 -0.02347165389237742 -0.02347165389237742 -0.02347165389237742 -0.02347165389237742 -0.02394737678800771 -0.02394737678800771 
-0.02394737678800771 -0.02394737678800771 -0.02432859032797151 -0.02432859032797151 -0.02432859032797151 -0.02432859032797151 -0.02461379003658649 -0.02461379003658649 -0.02461379003658649 
-0.02461379003658649 -0.02480185036089809 -0.02480185036089809 -0.02480185036089809 -0.02480185036089809 -0.02489202911272287 -0.02489202911272287 -0.02489202911272287 -0.02489202911272287 
-0.02488397039772618 -0.02488397039772618 -0.02488397039772618 -0.02488397039772618 -0.02477770601997418 -0.02477770601997418 -0.02477770601997418 -0.02477770601997418 -0.02457365535641849 
-0.02457365535641849 -0.02457365535641849 -0.02457365535641849 -0.02427262370180632 -0.02427262370180632 -0.02427262370180632 -0.02427262370180632 -0.02387579909055007 -0.02387579909055007 
-0.02387579909055007 -0.02387579909055007 -0.02338474760809847 -0.02338474760809847 -0.02338474760809847 -0.02338474760809847 -0.02280140721031263 -0.02280140721031263 -0.02280140721031263 
-0.02280140721031263 -0.0221280800752396 -0.0221280800752396 -0.0221280800752396 -0.0221280800752396 -0.02136742351746804 -0.02136742351746804 -0.02136742351746804 -0.02136742351746804 
-0.0205224395009202 -0.0205224395009202 -0.0205224395009202 -0.0205224395009202 -0.01959646279147297 -0.01959646279147297 -0.01959646279147297 -0.01959646279147297 -0.01859314779616003 
-0.01859314779616003 -0.01859314779616003 -0.01859314779616003 -0.01751645414089689 -0.01751645414089689 -0.01751645414089689 -0.01751645414089689 -0.01637063104364633 -0.01637063104364633 
-0.01637063104364633 -0.01637063104364633 -0.01516020054469641 -0.01516020054469641 -0.01516020054469641 -0.01516020054469641 -0.0138899396602334 -0.0138899396602334 -0.0138899396602334 
-0.0138899396602334 -0.01256486152964125 -0.01256486152964125 -0.01256486152964125 -0.01256486152964125 -0.01119019563093082 -0.01119019563093082 -0.01119019563093082 -0.01119019563093082 
-0.009771367142379205 -0.009771367142379205 -0.009771367142379205 -0.009771367142379205 -0.008313975531829592 -0.008313975531829592 -0.008313975531829592 -0.008313975531829592 -0.006823772458149985 
-0.006823772458149985 -0.006823772458149985 -0.006823772458149985 -0.005306639072063147 -0.005306639072063147 -0.005306639072063147 -0.005306639072063147 -0.003768562805931641 -0.003768562805931641 
-0.003768562805931641 -0.003768562805931641 -0.002215613744097717 -0.002215613744097717 -0.002215613744097717 -0.002215613744097717 -0.0006539206670334781 -0.0006539206670334781 -0.0006539206670334781 
-0.0006539206670334781 0.000910353136155605 0.000910353136155605 0.000910353136155605 0.000910353136155605 0.00247103419141711 0.00247103419141711 0.00247103419141711 0.00247103419141711 
0.004021963203633145 0.004021963203633145 0.004021963203633145 0.004021963203633145 0.005557019364544747 0.005557019364544747 0.005557019364544747 0.005557019364544747 0.007070144508785054 
0.007070144508785054 0.007070144508785054 0.007070144508785054 0.008555367022690955 0.008555367022690955 0.008555367022690955 0.008555367022690955 0.01000682541153374 0.01000682541153374 
0.01000682541153374 0.01000682541153374 0.01141879143216087 0.01141879143216087 0.01141879143216087 0.01141879143216087 0.01278569269975479 0.01278569269975479 0.01278569269975479 
0.01278569269975479 0.0141021346794902 0.0141021346794902 0.0141021346794902 0.0141021346794902 0.01536292197629816 0.01536292197629816 0.01536292197629816 0.01536292197629816 
0.01656307883871708 0.01656307883871708 0.01656307883871708 0.01656307883871708 0.01769786879591054 0.01769786879591054 0.01769786879591054 0.01769786879591054 0.0187628133503537 
0.0187628133503537 0.0187628133503537 0.0187628133503537 0.01975370965241705 0.01975370965241705 0.01975370965241705 0.01975370965241705 0.0206666470870937 0.0206666470870937 
0.0206666470870937 0.0206666470870937 0.02149802270741089 0.02149802270741089 0.02149802270741089 0.02149802270741089 0.02224455545361387 0.02224455545361387 0.02224455545361387 
0.02224455545361387 0.02290329910201253 0.02290329910201253 0.02290329910201253 0.02290329910201253 0.02347165389237718 0.02347165389237718 0.02347165389237718 0.02347165389237718 
0.02394737678800785 0.02394737678800785 0.02394737678800785 0.02394737678800785 0.02432859032797137 0.02432859032797137 0.02432859032797137 0.02432859032797137 0.02461379003658651 
0.02461379003658651 0.02461379003658651 0.02461379003658651 0.02480185036089786 0.02480185036089786 0.02480185036089786 0.02480185036089786 0.02489202911272273 0.02489202911272273 
0.02489202911272273 0.02489202911272273 0.02488397039772585 0.02488397039772585 0.02488397039772585 0.02488397039772585 0.02477770601997396 0.02477770601997396 0.02477770601997396 
0.02477770601997396 0.02457365535641836 0.02457365535641836 0.02457365535641836 0.02457365535641836 0.0242726237018062 0.0242726237018062 0.0242726237018062 0.0242726237018062 
0.02387579909054998 0.02387579909054998 0.02387579909054998 0.02387579909054998 0.02338474760809839 0.02338474760809839 0.02338474760809839 0.02338474760809839 0.02280140721031258 
0.02280140721031258 0.02280140721031258 0.02280140721031258 0.02212808007523976 0.02212808007523976 0.02212808007523976 0.02212808007523976 0.02136742351746812 0.02136742351746812 
0.02136742351746812 0.02136742351746812 0.02052243950092025 0.02052243950092025 0.02052243950092025 0.02052243950092025 0.01959646279147292 0.01959646279147292 0.01959646279147292 
0.01959646279147292 0.01859314779616017 0.01859314779616017 0.01859314779616017 0.01859314779616017 0.01751645414089691 0.01751645414089691 0.01751645414089691 0.01751645414089691 
0.01637063104364648 0.01637063104364648 0.01637063104364648 0.01637063104364648 0.01516020054469643 0.01516020054469643 0.01516020054469643 0.01516020054469643 0.01388993966023358 
0.01388993966023358 0.01388993966023358 0.01388993966023358 0.01256486152964128 0.01256486152964128 0.01256486152964128 0.01256486152964128 0.01119019563093085 0.01119019563093085 
0.01119019563093085 0.01119019563093085 0.00977136714237925 0.00977136714237925 0.00977136714237925 0.00977136714237925 0.008313975531829585 0.008313975531829585 0.008313975531829585 
0.008313975531829585 0.006823772458149977 0.006823772458149977 0.006823772458149977 0.006823772458149977 0.005306639072063146 0.005306639072063146 0.005306639072063146 0.005306639072063146 
0.003768562805931662 0.003768562805931662 0.003768562805931662 0.003768562805931662 0.002215613744097744 0.002215613744097744 0.002215613744097744 0.002215613744097744 0.0006539206670335098 
0.0006539206670335098 0.0006539206670335098 0.0006539206670335098 -0.002567568833002817 -0.002567568833002817 -0.002567568833002817 -0.002567568833002817 -0.00705081889705648 -0.00705081889705648 
-0.00705081889705648 -0.00705081889705648 -0.01150624260013621 -0.01150624260013621 -0.01150624260013621 -0.01150624260013621 -0.01591625642037541 -0.01591625642037541 -0.01591625642037541 
-0.01591625642037541 -0.02026345604796923 -0.02026345604796923 -0.02026345604796923 -0.02026345604796923 -0.02453068507203426 -0.02453068507203426 -0.02453068507203426 -0.02453068507203426 
-0.02870110268912396 -0.02870110268912396 -0.02870110268912396 -0.02870110268912396 -0.03275825016618624 -0.03275825016618624 -0.03275825016618624 -0.03275825016618624 -0.03668611579566352 
-0.03668611579566352 -0.03668611579566352 -0.03668611579566352 -0.04046919808638735 -0.04046919808638735 -0.04046919808638735 -0.04046919808638735 -0.04409256694088215 -0.04409256694088215 
-0.04409256694088215 -0.04409256694088215 -0.04754192257763898 -0.04754192257763898 -0.04754192257763898 -0.04754192257763898 -0.05080365196582028 -0.05080365196582028 -0.05080365196582028 
-0.05080365196582028 -0.05386488254967334 -0.05386488254967334 -0.05386488254967334 -0.05386488254967334 -0.05671353305062683 -0.05671353305062683 -0.05671353305062683 -0.05671353305062683 
-0.05933836114657815 -0.05933836114657815 -0.05933836114657815 -0.05933836114657815 -0.06172900784020253 -0.06172900784020253 -0.06172900784020253 -0.06172900784020253 -0.06387603834118266 
-0.06387603834118266 -0.06387603834118266 -0.06387603834118266 -0.0657709793010163 -0.0657709793010163 -0.0657709793010163 -0.0657709793010163 -0.06740635225345107 -0.06740635225345107 
-0.06740635225345107 -0.06740635225345107 -0.06877570312857452 -0.06877570312857452 -0.06877570312857452 -0.06877570312857452 -0.06987362772407946 -0.06987362772407946 -0.06987362772407946 
-0.06987362772407946 -0.07069579303318146 -0.07069579303318146 -0.07069579303318146 -0.07069579303318146 -0.07123895434501711 -0.07123895434501711 -0.07123895434501711 -0.07123895434501711 
-0.07150096805003542 -0.07150096805003542 -0.07150096805003542 -0.07150096805003542 -0.07148080009984525 -0.07148080009984525 -0.07148080009984525 -0.07148080009984525 -0.07117853008813228 
-0.07117853008813228 -0.07117853008813228 -0.07117853008813228 -0.07059535093653882 -0.07059535093653882 -0.07059535093653882 -0.07059535093653882 -0.06973356418674666 -0.06973356418674666 
-0.06973356418674666 -0.06973356418674666 -0.06859657091734452 -0.06859657091734452 -0.06859657091734452 -0.06859657091734452 -0.06718885832132387 -0.06718885832132387 -0.06718885832132387 
-0.06718885832132387 -0.06551598199717845 -0.06551598199717845 -0.06551598199717845 -0.06551598199717845 -0.06358454402349548 -0.06358454402349548 -0.06358454402349548 -0.06358454402349548 
-0.06140216690356626 -0.06140216690356626 -0.06140216690356626 -0.06140216690356626 -0.05897746348285061 -0.05897746348285061 -0.05897746348285061 -0.05897746348285061 -0.05632000295800827 
-0.05632000295800827 -0.05632000295800827 -0.05632000295800827 -0.05344027311165253 -0.05344027311165253 -0.05344027311165253 -0.05344027311165253 -0.05034963892186365 -0.05034963892186365 
-0.05034963892186365 -0.05034963892186365 -0.0470602977098121 -0.0470602977098121 -0.0470602977098121 -0.0470602977098121 -0.04358523100250476 -0.04358523100250476 -0.04358523100250476 
-0.04358523100250476 -0.0399381533006286 -0.0399381533006286 -0.0399381533006286 -0.0399381533006286 -0.03613345795368149 -0.03613345795368149 -0.03613345795368149 -0.03613345795368149 
-0.03218616035599794 -0.03218616035599794 -0.03218616035599794 -0.03218616035599794 -0.02811183868784715 -0.02811183868784715 -0.02811183868784715 -0.02811183868784715 -0.02392657243547281 
-0.02392657243547281 -0.02392657243547281 -0.02392657243547281 -0.01964687893270689 -0.01964687893270689 -0.01964687893270689 -0.01964687893270689 -0.01528964817459881 -0.01528964817459881 
-0.01528964817459881 -0.01528964817459881 -0.01087207616032142 -0.01087207616032142 -0.01087207616032142 -0.01087207616032142 -0.006411597028418299 -0.006411597028418299 -0.006411597028418299 
-0.006411597028418299 -0.00192581425222407 -0.00192581425222407 -0.00192581425222407 -0.00192581425222407 0.002567568833002841 0.002567568833002841 0.002567568833002841 0.002567568833002841 
0.007050818897056544 0.007050818897056544 0.007050818897056544 0.007050818897056544 0.01150624260013615 0.01150624260013615 0.01150624260013615 0.01150624260013615 0.01591625642037535 
0.01591625642037535 0.01591625642037535 0.01591625642037535 0.02026345604796919 0.02026345604796919 0.02026345604796919 0.02026345604796919 0.0245306850720343 0.0245306850720343 
0.0245306850720343 0.0245306850720343 0.02870110268912398 0.02870110268912398 0.02870110268912398 0.02870110268912398 0.03275825016618625 0.03275825016618625 0.03275825016618625 
0.03275825016618625 0.03668611579566347 0.03668611579566347 0.03668611579566347 0.03668611579566347 0.04046919808638728 0.04046919808638728 0.04046919808638728 0.04046919808638728 
0.04409256694088207 0.04409256694088207 0.04409256694088207 0.04409256694088207 0.0475419225776389 0.0475419225776389 0.0475419225776389 0.0475419225776389 0.0508036519658201 
0.0508036519658201 0.0508036519658201 0.0508036519658201 0.05386488254967307 0.05386488254967307 0.05386488254967307 0.05386488254967307 0.05671353305062674 0.05671353305062674 
0.05671353305062674 0.05671353305062674 0.05933836114657833 0.05933836114657833 0.05933836114657833 0.05933836114657833 0.06172900784020253 0.06172900784020253 0.06172900784020253 
0.06172900784020253 0.06387603834118273 0.06387603834118273 0.06387603834118273 0.06387603834118273 0.06577097930101614 0.06577097930101614 0.06577097930101614 0.06577097930101614 
0.06740635225345103 0.06740635225345103 0.06740635225345103 0.06740635225345103 0.06877570312857423 0.06877570312857423 0.06877570312857423 0.06877570312857423 0.06987362772407935 
0.06987362772407935 0.06987362772407935 0.06987362772407935 0.07069579303318113 0.07069579303318113 0.07069579303318113 0.07069579303318113 0.07123895434501688 0.07123895434501688 
0.07123895434501688 0.07123895434501688 0.07150096805003511 0.07150096805003511 0.07150096805003511 0.07150096805003511 0.0714808000998453 0.0714808000998453 0.0714808000998453 
0.0714808000998453 0.07117853008813228 0.07117853008813228 0.07117853008813228 0.07117853008813228 0.07059535093653874 0.07059535093653874 0.07059535093653874 0.07059535093653874 
0.06973356418674645 0.06973356418674645 0.06973356418674645 0.06973356418674645 0.06859657091734432 0.06859657091734432 0.06859657091734432 0.06859657091734432 0.06718885832132369 
0.06718885832132369 0.06718885832132369 0.06718885832132369 0.06551598199717834 0.06551598199717834 0.06551598199717834 0.06551598199717834 0.06358454402349516 0.06358454402349516 
0.06358454402349516 0.06358454402349516 0.06140216690356621 0.06140216690356621 0.06140216690356621 0.06140216690356621 0.05897746348285068 0.05897746348285068 0.05897746348285068 
0.05897746348285068 0.05632000295800864 0.05632000295800864 0.05632000295800864 0.05632000295800864 0.05344027311165268 0.05344027311165268 0.05344027311165268 0.05344027311165268 
0.05034963892186389 0.05034963892186389 0.05034963892186389 0.05034963892186389 0.04706029770981205 0.04706029770981205 0.04706029770981205 0.04706029770981205 0.04358523100250492 
0.04358523100250492 0.04358523100250492 0.04358523100250492 0.03993815330062846 0.03993815330062846 0.03993815330062846 0.03993815330062846 0.03613345795368154 0.03613345795368154 
0.03613345795368154 0.03613345795368154 0.03218616035599795 0.03218616035599795 0.03218616035599795 0.03218616035599795 0.02811183868784709 0.02811183868784709 0.02811183868784709 
0.02811183868784709 0.02392657243547301 0.02392657243547301 0.02392657243547301 0.02392657243547301 0.0196468789327071 0.0196468789327071 0.0196468789327071 0.0196468789327071 
0.01528964817459894 0.01528964817459894 0.01528964817459894 0.01528964817459894 0.01087207616032145 0.01087207616032145 0.01087207616032145 0.01087207616032145 0.006411597028418321 
0.006411597028418321 0.006411597028418321 0.006411597028418321 0.001925814252224094 0.001925814252224094 0.001925814252224094 0.001925814252224094 -0.00421465150867684 -0.00421465150867684 
-0.00421465150867684 -0.00421465150867684 -0.01160277724172201 -0.01160277724172201 -0.01160277724172201 -0.01160277724172201 -0.01894511211379879 -0.01894511211379879 -0.01894511211379879 
-0.01894511211379879 -0.02621267928356085 -0.02621267928356085 -0.02621267928356085 -0.02621267928356085 -0.03337679698362464 -0.03337679698362464 -0.03337679698362464 -0.03337679698362464 
-0.04040919171440226 -0.04040919171440226 -0.04040919171440226 -0.04040919171440226 -0.04728210982668678 -0.04728210982668678 -0.04728210982668678 -0.04728210982668678 -0.05396842705262659 
-0.05396842705262659 -0.05396842705262659 -0.05396842705262659 -0.06044175555281873 -0.06044175555281873 -0.06044175555281873 -0.06044175555281873 -0.06667654805705538 -0.06667654805705538 
-0.06667654805705538 -0.06667654805705538 -0.07264819868772809 -0.07264819868772809 -0.07264819868772809 -0.07264819868772809 -0.07833314006798525 -0.07833314006798525 -0.07833314006798525 
-0.07833314006798525 -0.08370893633140165 -0.08370893633140165 -0.08370893633140165 -0.08370893633140165 -0.0887543716660933 -0.0887543716660933 -0.0887543716660933 -0.0887543716660933 
-0.09344953404383428 -0.09344953404383428 -0.09344953404383428 -0.09344953404383428 -0.09777589380373536 -0.09777589380373536 -0.09777589380373536 -0.09777589380373536 -0.1017163767803498 
-0.1017163767803498 -0.1017163767803498 -0.1017163767803498 -0.1052554316876048 -0.1052554316876048 -0.1052554316876048 -0.1052554316876048 -0.1083790914926212 -0.1083790914926212 
-0.1083790914926212 -0.1083790914926212 -0.1110750285372134 -0.1110750285372134 -0.1110750285372134 -0.1110750285372134 -0.1133326031895228 -0.1133326031895228 -0.1133326031895228 
-0.1133326031895228 -0.1151429058337844 -0.1151429058337844 -0.1151429058337844 -0.1151429058337844 -0.11649879203251 -0.11649879203251 -0.11649879203251 -0.11649879203251 
-0.1173949107223188 -0.1173949107223188 -0.1173949107223188 -0.1173949107223188 -0.1178277253321395 -0.1178277253321395 -0.1178277253321395 -0.1178277253321395 -0.1177955277404417 
-0.1177955277404417 -0.1177955277404417 -0.1177955277404417 -0.1172984450164099 -0.1172984450164099 -0.1172984450164099 -0.1172984450164099 -0.1163384389184604 -0.1163384389184604 
-0.1163384389184604 -0.1163384389184604 -0.1149192981520769 -0.1149192981520769 -0.1149192981520769 -0.1149192981520769 -0.1130466234175203 -0.1130466234175203 -0.1130466234175203 
-0.1130466234175203 -0.1107278053064244 -0.1107278053064244 -0.1107278053064244 -0.1107278053064244 -0.1079719951345064 -0.1079719951345064 -0.1079719951345064 -0.1079719951345064 
-0.104790068825505 -0.104790068825505 -0.104790068825505 -0.104790068825505 -0.1011945839888779 -0.1011945839888779 -0.1011945839888779 -0.1011945839888779 -0.09719973036065449 
-0.09719973036065449 -0.09719973036065449 -0.09719973036065449 -0.09282127380303036 -0.09282127380303036 -0.09282127380303036 -0.09282127380303036 -0.08807649408371204 -0.08807649408371204 
-0.08807649408371204 -0.08807649408371204 -0.08298411668056771 -0.08298411668056771 -0.08298411668056771 -0.08298411668056771 -0.07756423888072203 -0.07756423888072203 -0.07756423888072203 
-0.07756423888072203 -0.0718382504657443 -0.0718382504657443 -0.0718382504657443 -0.0718382504657443 -0.06582874929595296 -0.06582874929595296 -0.06582874929595296 -0.06582874929595296 
-0.05955945212698524 -0.05955945212698524 -0.05955945212698524 -0.05955945212698524 -0.05305510101059781 -0.05305510101059781 -0.05305510101059781 -0.05305510101059781 -0.04634136564909162 
-0.04634136564909162 -0.04634136564909162 -0.04634136564909162 -0.03944474208872454 -0.03944474208872454 -0.03944474208872454 -0.03944474208872454 -0.03239244815192178 -0.03239244815192178 
-0.03239244815192178 -0.03239244815192178 -0.02521231602096528 -0.02521231602096528 -0.02521231602096528 -0.02521231602096528 -0.01793268239708549 -0.01793268239708549 -0.01793268239708549 
-0.01793268239708549 -0.01058227666844772 -0.01058227666844772 -0.01058227666844772 -0.01058227666844772 -0.003190107528381944 -0.003190107528381944 -0.003190107528381944 -0.003190107528381944 
0.004214651508676852 0.004214651508676852 0.004214651508676852 0.004214651508676852 0.01160277724172208 0.01160277724172208 0.01160277724172208 0.01160277724172208 0.01894511211379878 
0.01894511211379878 0.01894511211379878 0.01894511211379878 0.02621267928356086 0.02621267928356086 0.02621267928356086 0.02621267928356086 0.03337679698362471 0.03337679698362471 
0.03337679698362471 0.03337679698362471 0.0404091917144024 0.0404091917144024 0.0404091917144024 0.0404091917144024 0.04728210982668674 0.04728210982668674 0.04728210982668674 
0.04728210982668674 0.05396842705262678 0.05396842705262678 0.05396842705262678 0.05396842705262678 0.06044175555281868 0.06044175555281868 0.06044175555281868 0.06044175555281868 
0.06667654805705532 0.06667654805705532 0.06667654805705532 0.06667654805705532 0.07264819868772804 0.07264819868772804 0.07264819868772804 0.07264819868772804 0.07833314006798524 
0.07833314006798524 0.07833314006798524 0.07833314006798524 0.08370893633140142 0.08370893633140142 0.08370893633140142 0.08370893633140142 0.08875437166609342 0.08875437166609342 
0.08875437166609342 0.08875437166609342 0.09344953404383428 0.09344953404383428 0.09344953404383428 0.09344953404383428 0.09777589380373515 0.09777589380373515 0.09777589380373515 
0.09777589380373515 0.1017163767803498 0.1017163767803498 0.1017163767803498 0.1017163767803498 0.1052554316876047 0.1052554316876047 0.1052554316876047 0.1052554316876047 
0.108379091492621 0.108379091492621 0.108379091492621 0.108379091492621 0.1110750285372135 0.1110750285372135 0.1110750285372135 0.1110750285372135 0.1133326031895227 
0.1133326031895227 0.1133326031895227 0.1133326031895227 0.1151429058337845 0.1151429058337845 0.1151429058337845 0.1151429058337845 0.11649879203251 0.11649879203251 
0.11649879203251 0.11649879203251 0.1173949107223187 0.1173949107223187 0.1173949107223187 0.1173949107223187 0.1178277253321394 0.1178277253321394 0.1178277253321394 
0.1178277253321394 0.1177955277404412 0.1177955277404412 0.1177955277404412 0.1177955277404412 0.1172984450164098 0.1172984450164098 0.1172984450164098 0.1172984450164098 
0.1163384389184603 0.1163384389184603 0.1163384389184603 0.1163384389184603 0.1149192981520768 0.1149192981520768 0.1149192981520768 0.1149192981520768 0.1130466234175202 
0.1130466234175202 0.1130466234175202 0.1130466234175202 0.1107278053064243 0.1107278053064243 0.1107278053064243 0.1107278053064243 0.1079719951345064 0.1079719951345064 
0.1079719951345064 0.1079719951345064 0.104790068825505 0.104790068825505 0.104790068825505 0.104790068825505 0.1011945839888778 0.1011945839888778 0.1011945839888778 
0.1011945839888778 0.09719973036065462 0.09719973036065462 0.09719973036065462 0.09719973036065462 0.09282127380303024 0.09282127380303024 0.09282127380303024 0.09282127380303024 
0.08807649408371193 0.08807649408371193 0.08807649408371193 0.08807649408371193 0.08298411668056775 0.08298411668056775 0.08298411668056775 0.08298411668056775 0.07756423888072214 
0.07756423888072214 0.07756423888072214 0.07756423888072214 0.07183825046574438 0.07183825046574438 0.07183825046574438 0.07183825046574438 0.06582874929595292 0.06582874929595292 
0.06582874929595292 0.06582874929595292 0.05955945212698528 0.05955945212698528 0.05955945212698528 0.05955945212698528 0.0530551010105979 0.0530551010105979 0.0530551010105979 
0.0530551010105979 0.04634136564909167 0.04634136564909167 0.04634136564909167 0.04634136564909167 0.03944474208872455 0.03944474208872455 0.03944474208872455 0.03944474208872455 
0.03239244815192165 0.03239244815192165 0.03239244815192165 0.03239244815192165 0.02521231602096521 0.02521231602096521 0.02521231602096521 0.02521231602096521 0.01793268239708543 
0.01793268239708543 0.01793268239708543 0.01793268239708543 0.01058227666844773 0.01058227666844773 0.01058227666844773 0.01058227666844773 0.003190107528381957 0.003190107528381957 
0.003190107528381957 0.003190107528381957 -0.005845100880337161 -0.005845100880337161 -0.005845100880337161 -0.005845100880337161 -0.01610894472541911 -0.01610894472541911 -0.01610894472541911 
-0.01610894472541911 -0.02630921392514662 -0.02630921392514662 -0.02630921392514662 -0.02630921392514662 -0.0364056526770481 -0.0364056526770481 -0.0364056526770481 -0.0364056526770481 
-0.04635841494999378 -0.04635841494999378 -0.04635841494999378 -0.04635841494999378 -0.05612822173827715 -0.05612822173827715 -0.05612822173827715 -0.05612822173827715 -0.0656765160779049 
-0.0656765160779049 -0.0656765160779049 -0.0656765160779049 -0.07496561521331926 -0.07496561521331926 -0.07496561521331926 -0.07496561521331926 -0.08395885931401845 -0.08395885931401845 
-0.08395885931401845 -0.08395885931401845 -0.09262075615415946 -0.09262075615415946 -0.09262075615415946 -0.09262075615415946 -0.1009171211841585 -0.1009171211841585 -0.1009171211841585 
-0.1009171211841585 -0.1088152124414908 -0.1088152124414908 -0.1088152124414908 -0.1088152124414908 -0.1162838597682583 -0.1162838597682583 -0.1162838597682583 -0.1162838597682583 
-0.1232935878255627 -0.1232935878255627 -0.1232935878255627 -0.1232935878255627 -0.1298167324192018 -0.1298167324192018 -0.1298167324192018 -0.1298167324192018 -0.1358275496776061 
-0.1358275496776061 -0.1358275496776061 -0.1358275496776061 -0.1413023176511375 -0.1413023176511375 -0.1413023176511375 -0.1413023176511375 -0.1462194299317884 -0.1462194299317884 
-0.1462194299317884 -0.1462194299317884 -0.1505594809238018 -0.1505594809238018 -0.1505594809238018 -0.1505594809238018 -0.1543053424286929 -0.1543053424286929 -0.1543053424286929 
-0.1543053424286929 -0.1574422312424233 -0.1574422312424233 -0.1574422312424233 -0.1574422312424233 -0.1599577674979533 -0.1599577674979533 -0.1599577674979533 -0.1599577674979533 
-0.1618420235229218 -0.1618420235229218 -0.1618420235229218 -0.1618420235229218 -0.1630875630196325 -0.1630875630196325 -0.1630875630196325 -0.1630875630196325 -0.1636894704127251 
-0.1636894704127251 -0.1636894704127251 -0.1636894704127251 -0.1636453702487041 -0.1636453702487041 -0.1636453702487041 -0.1636453702487041 -0.1629554365707699 -0.1629554365707699 
-0.1629554365707699 -0.1629554365707699 -0.1616223922319481 -0.1616223922319481 -0.1616223922319481 -0.1616223922319481 -0.1596514981492341 -0.1596514981492341 -0.1596514981492341 
-0.1596514981492341 -0.1570505325411569 -0.1570505325411569 -0.1570505325411569 -0.1570505325411569 -0.153829760230703 -0.153829760230703 -0.153829760230703 -0.153829760230703 
-0.150001892134751 -0.150001892134751 -0.150001892134751 -0.150001892134751 -0.145582035099889 -0.145582035099889 -0.145582035099889 -0.145582035099889 -0.1405876322825932 
-0.1405876322825932 -0.1405876322825932 -0.1405876322825932 -0.1350383943090576 -0.1350383943090576 -0.1350383943090576 -0.1350383943090576 -0.1289562214863581 -0.1289562214863581 
-0.1289562214863581 -0.1289562214863581 -0.1223651173719456 -0.1223651173719456 -0.1223651173719456 -0.1223651173719456 -0.1152910940425705 -0.1152910940425705 -0.1152910940425705 
-0.1152910940425705 -0.1077620694364999 -0.1077620694364999 -0.1077620694364999 -0.1077620694364999 -0.09980775717417018 -0.09980775717417018 -0.09980775717417018 -0.09980775717417018 
-0.09145954929210087 -0.09145954929210087 -0.09145954929210087 -0.09145954929210087 -0.0827503923528693 -0.0827503923528693 -0.0827503923528693 -0.0827503923528693 -0.07371465742007903 
-0.07371465742007903 -0.07371465742007903 -0.07371465742007903 -0.06438800441147527 -0.06438800441147527 -0.06438800441147527 -0.06438800441147527 -0.0548072413655406 -0.0548072413655406 
-0.0548072413655406 -0.0548072413655406 -0.04501017917698267 -0.04501017917698267 -0.04501017917698267 -0.04501017917698267 -0.03503548237440836 -0.03503548237440836 -0.03503548237440836 
-0.03503548237440836 -0.02492251652909154 -0.02492251652909154 -0.02492251652909154 -0.02492251652909154 -0.01471119289704912 -0.01471119289704912 -0.01471119289704912 -0.01471119289704912 
-0.004441810907546881 -0.004441810907546881 -0.004441810907546881 -0.004441810907546881 0.005845100880337181 0.005845100880337181 0.005845100880337181 0.005845100880337181 0.01610894472541918 
0.01610894472541918 0.01610894472541918 0.01610894472541918 0.02630921392514672 0.02630921392514672 0.02630921392514672 0.02630921392514672 0.03640565267704819 0.03640565267704819 
0.03640565267704819 0.03640565267704819 0.04635841494999391 0.04635841494999391 0.04635841494999391 0.04635841494999391 0.05612822173827733 0.05612822173827733 0.05612822173827733 
0.05612822173827733 0.06567651607790484 0.06567651607790484 0.06567651607790484 0.06567651607790484 0.07496561521331943 0.07496561521331943 0.07496561521331943 0.07496561521331943 
0.08395885931401853 0.08395885931401853 0.08395885931401853 0.08395885931401853 0.09262075615415945 0.09262075615415945 0.09262075615415945 0.09262075615415945 0.1009171211841585 
0.1009171211841585 0.1009171211841585 0.1009171211841585 0.1088152124414905 0.1088152124414905 0.1088152124414905 0.1088152124414905 0.116283859768258 0.116283859768258 