Title = Triangle100
FileType = Solution
Variables = q
Zone T = Triangle100
ZoneType = FETriangle
Nodes = 99072
Elements = 33024
DataPacking = Block
StrandID = 3
SolutionTime = 0.2
0.1892216836884015 0.1892216836884015 0.1892216836884015 0.1640475080489303 0.1640475080489303 0.1640475080489303 0.1553280141085726 0.1553280141085726 0.1553280141085726 0.3162122471677977 
0.3162122471677977 0.3162122471677977 0.3290710881797566 0.3290710881797566 0.3290710881797566 0.2666430451986441 0.2666430451986441 0.2666430451986441 0.2958329649224467 
0.2958329649224467 0.2958329649224467 0.3461454218958634 0.3461454218958634 0.3461454218958634 0.3436616383579952 0.3436616383579952 0.3436616383579952 -0.03678375870758605 
-0.03678375870758605 -0.03678375870758605 -0.04782391150621616 -0.04782391150621616 -0.04782391150621616 0.2314536411361789 0.2314536411361789 0.2314536411361789 0.2718558280310645 
0.2718558280310645 0.2718558280310645 0.3891422993381422 0.3891422993381422 0.3891422993381422 0.4084660694307805 0.4084660694307805 0.4084660694307805 -0.4392222029879027 
-0.4392222029879027 -0.4392222029879027 -0.4668795735103506 -0.4668795735103506 -0.4668795735103506 0.4887371233394108 0.4887371233394108 0.4887371233394108 0.5049449328997251 
0.5049449328997251 0.5049449328997251 0.5744461876642312 0.5744461876642312 0.5744461876642312 0.550173255477709 0.550173255477709 0.550173255477709 0.5101760706945984 
0.5101760706945984 0.5101760706945984 -0.2132133503285788 -0.2132133503285788 -0.2132133503285788 -0.2038764019911324 -0.2038764019911324 -0.2038764019911324 0.4154326312359772 
0.4154326312359772 0.4154326312359772 0.4182102235923962 0.4182102235923962 0.4182102235923962 0.2773495523489055 0.2773495523489055 0.2773495523489055 0.2446999498073648 
0.2446999498073648 0.2446999498073648 -0.1248336271801769 -0.1248336271801769 -0.1248336271801769 -0.1699718542202895 -0.1699718542202895 -0.1699718542202895 -0.9342195480629307 
-0.9342195480629307 -0.9342195480629307 -0.9298467937763193 -0.9298467937763193 -0.9298467937763193 -0.9263756161667218 -0.9263756161667218 -0.9263756161667218 -0.1050554199541592 
-0.1050554199541592 -0.1050554199541592 -0.1106040194076842 -0.1106040194076842 -0.1106040194076842 -0.1156010392733993 -0.1156010392733993 -0.1156010392733993 0.002145646910225471 
0.002145646910225471 0.002145646910225471 0.0003728340294825386 0.0003728340294825386 0.0003728340294825386 0.006008690464349275 0.006008690464349275 0.006008690464349275 0.3220216990087704 
0.3220216990087704 0.3220216990087704 0.2944614537440842 0.2944614537440842 0.2944614537440842 0.2838196765459493 0.2838196765459493 0.2838196765459493 -0.3999835099899398 
-0.3999835099899398 -0.3999835099899398 -0.3837294381235525 -0.3837294381235525 -0.3837294381235525 -0.3686636785428287 -0.3686636785428287 -0.3686636785428287 -0.7635632638497118 
-0.7635632638497118 -0.7635632638497118 -0.7714794535423769 -0.7714794535423769 -0.7714794535423769 -0.7807291364490886 -0.7807291364490886 -0.7807291364490886 -0.4235625379650601 
-0.4235625379650601 -0.4235625379650601 -0.4234812043345049 -0.4234812043345049 -0.4234812043345049 -0.3900109395597616 -0.3900109395597616 -0.3900109395597616 0.2296190433847863 
0.2296190433847863 0.2296190433847863 0.1939660551714902 0.1939660551714902 0.1939660551714902 0.09987608642032821 0.09987608642032821 0.09987608642032821 0.1223317442115702 
0.1223317442115702 0.1223317442115702 -0.7270856382462024 -0.7270856382462024 -0.7270856382462024 -0.6983964236044808 -0.6983964236044808 -0.6983964236044808 -0.05480760174734151 
-0.05480760174734151 -0.05480760174734151 -0.05501299009106875 -0.05501299009106875 -0.05501299009106875 0.2603364497134376 0.2603364497134376 0.2603364497134376 0.2093660145640308 
0.2093660145640308 0.2093660145640308 -0.2416635338816922 -0.2416635338816922 -0.2416635338816922 -0.2400180245197003 -0.2400180245197003 -0.2400180245197003 -0.1821178193044295 
-0.1821178193044295 -0.1821178193044295 -0.1977619240860699 -0.1977619240860699 -0.1977619240860699 0.5252251384586474 0.5252251384586474 0.5252251384586474 0.5092963064568057 
0.5092963064568057 0.5092963064568057 -0.2732436115792365 -0.2732436115792365 -0.2732436115792365 -0.2631164438199489 -0.2631164438199489 -0.2631164438199489 -0.112376403103341 
-0.112376403103341 -0.112376403103341 -0.1011653222148315 -0.1011653222148315 -0.1011653222148315 0.9239344870898982 0.9239344870898982 0.9239344870898982 0.9290533350324425 
0.9290533350324425 0.9290533350324425 -0.2305062950078487 -0.2305062950078487 -0.2305062950078487 -0.2066834396552706 -0.2066834396552706 -0.2066834396552706 -0.4400686787607926 
-0.4400686787607926 -0.4400686787607926 -0.4458953797837595 -0.4458953797837595 -0.4458953797837595 0.09427162679519313 0.09427162679519313 0.09427162679519313 0.08399313998754801 
0.08399313998754801 0.08399313998754801 -0.5296312895828926 -0.5296312895828926 -0.5296312895828926 -0.5268957594605775 -0.5268957594605775 -0.5268957594605775 0.0482608077858668 
0.0482608077858668 0.0482608077858668 0.03447479535561239 0.03447479535561239 0.03447479535561239 0.5729043215323912 0.5729043215323912 0.5729043215323912 0.5607665344660474 
0.5607665344660474 0.5607665344660474 0.4631581651081965 0.4631581651081965 0.4631581651081965 0.4353573293343567 0.4353573293343567 0.4353573293343567 -0.173179979967433 
-0.173179979967433 -0.173179979967433 -0.1915732025472935 -0.1915732025472935 -0.1915732025472935 0.3103401626679453 0.3103401626679453 0.3103401626679453 0.3314224752744755 
0.3314224752744755 0.3314224752744755 -0.1382450443284174 -0.1382450443284174 -0.1382450443284174 0.003315922065406142 0.003315922065406142 0.003315922065406142 -0.005527378798997529 
-0.005527378798997529 -0.005527378798997529 0.4746363106284415 0.4746363106284415 0.4746363106284415 0.5153993896231858 0.5153993896231858 0.5153993896231858 0.2983015582178453 
0.2983015582178453 0.2983015582178453 0.2850055967941153 0.2850055967941153 0.2850055967941153 0.2718111256173592 0.2718111256173592 0.2718111256173592 0.258854044024899 
0.258854044024899 0.258854044024899 0.4733192760188383 0.4733192760188383 0.4733192760188383 0.445778255947698 0.445778255947698 0.445778255947698 0.01308054932687533 
0.01308054932687533 0.01308054932687533 0.004777462397997144 0.004777462397997144 0.004777462397997144 0.196249975087246 0.196249975087246 0.196249975087246 0.193575691651146 
0.193575691651146 0.193575691651146 0.2548840419633495 0.2548840419633495 0.2548840419633495 0.2172640969755555 0.2172640969755555 0.2172640969755555 0.1696299654098609 
0.1696299654098609 0.1696299654098609 0.1569041185116614 0.1569041185116614 0.1569041185116614 -0.2705594873335624 -0.2705594873335624 -0.2705594873335624 -0.2347966560734509 
-0.2347966560734509 -0.2347966560734509 -0.1011770007184654 -0.1011770007184654 -0.1011770007184654 -0.04701606881430129 -0.04701606881430129 -0.04701606881430129 -0.3928832910592671 
-0.3928832910592671 -0.3928832910592671 -0.3587860548103921 -0.3587860548103921 -0.3587860548103921 -0.9628522311511568 -0.9628522311511568 -0.9628522311511568 -0.9601060654172575 
-0.9601060654172575 -0.9601060654172575 0.3404888930503446 0.3404888930503446 0.3404888930503446 0.3138599439322577 0.3138599439322577 0.3138599439322577 -0.3474726536039471 
-0.3474726536039471 -0.3474726536039471 -0.3050880972272738 -0.3050880972272738 -0.3050880972272738 -0.3632211183495487 -0.3632211183495487 -0.3632211183495487 -0.3963808733043495 
-0.3963808733043495 -0.3963808733043495 0.7815399211201541 0.7815399211201541 0.7815399211201541 0.787101887872793 0.787101887872793 0.787101887872793 0.793438285996953 
0.793438285996953 0.793438285996953 0.3115798901335295 0.3115798901335295 0.3115798901335295 0.3320148742234363 0.3320148742234363 0.3320148742234363 0.3634213953795924 
0.3634213953795924 0.3634213953795924 0.03436189682474616 0.03436189682474616 0.03436189682474616 0.02818031691820467 0.02818031691820467 0.02818031691820467 0.02226085103861162 
0.02226085103861162 0.02226085103861162 -0.1046529162195214 -0.1046529162195214 -0.1046529162195214 -0.1086761881598206 -0.1086761881598206 -0.1086761881598206 -0.1179035020443618 
-0.1179035020443618 -0.1179035020443618 -0.6619195034477571 -0.6619195034477571 -0.6619195034477571 -0.6506128044853745 -0.6506128044853745 -0.6506128044853745 -0.636239429845426 
-0.636239429845426 -0.636239429845426 0.3536878427206274 0.3536878427206274 0.3536878427206274 0.3760527914152257 0.3760527914152257 0.3760527914152257 0.1245618380714057 
0.1245618380714057 0.1245618380714057 0.1105102906834208 0.1105102906834208 0.1105102906834208 0.08662978494204072 0.08662978494204072 0.08662978494204072 0.3426994918218301 
0.3426994918218301 0.3426994918218301 0.327207748364287 0.327207748364287 0.327207748364287 0.2994869325941367 0.2994869325941367 0.2994869325941367 -0.04950315974240965 
-0.04950315974240965 -0.04950315974240965 -0.04935543403006942 -0.04935543403006942 -0.04935543403006942 -0.05402601423715992 -0.05402601423715992 -0.05402601423715992 0.06620363118146282 
0.06620363118146282 0.06620363118146282 0.04885667592814256 0.04885667592814256 0.04885667592814256 0.06458776663655065 0.06458776663655065 0.06458776663655065 -0.3065642240631827 
-0.3065642240631827 -0.3065642240631827 -0.293698994811982 -0.293698994811982 -0.293698994811982 -0.2767053341259874 -0.2767053341259874 -0.2767053341259874 0.1873824976528718 
0.1873824976528718 0.1873824976528718 0.1703097529431224 0.1703097529431224 0.1703097529431224 0.1603351241462303 0.1603351241462303 0.1603351241462303 0.9603328923138781 
0.9603328923138781 0.9603328923138781 0.9642866841710405 0.9642866841710405 0.9642866841710405 0.9660489413548154 0.9660489413548154 0.9660489413548154 0.7979058237680894 
0.7979058237680894 0.7979058237680894 0.8026597479934294 0.8026597479934294 0.8026597479934294 0.1595254073628201 0.1595254073628201 0.1595254073628201 0.1702327738250506 
0.1702327738250506 0.1702327738250506 0.1734969200315736 0.1734969200315736 0.1734969200315736 -0.2456752126991297 -0.2456752126991297 -0.2456752126991297 -0.246160035274842 
-0.246160035274842 -0.246160035274842 0.8525149813716856 0.8525149813716856 0.8525149813716856 0.8416482097464115 0.8416482097464115 0.8416482097464115 0.1464142119291416 
0.1464142119291416 0.1464142119291416 0.1807767522871642 0.1807767522871642 0.1807767522871642 0.4373174801006428 0.4373174801006428 0.4373174801006428 0.4079874215274022 
0.4079874215274022 0.4079874215274022 -0.1841770815466497 -0.1841770815466497 -0.1841770815466497 -0.1791213741013581 -0.1791213741013581 -0.1791213741013581 0.1322498097087301 
0.1322498097087301 0.1322498097087301 0.1616753054306067 0.1616753054306067 0.1616753054306067 -0.8854608486566724 -0.8854608486566724 -0.8854608486566724 -0.8856484480607439 
-0.8856484480607439 -0.8856484480607439 -0.02801870375234884 -0.02801870375234884 -0.02801870375234884 -0.04105667874553752 -0.04105667874553752 -0.04105667874553752 -0.3903873661403472 
-0.3903873661403472 -0.3903873661403472 -0.3889940502632636 -0.3889940502632636 -0.3889940502632636 0.2748180867166017 0.2748180867166017 0.2748180867166017 0.2895880509938005 
0.2895880509938005 0.2895880509938005 -0.5044165371086325 -0.5044165371086325 -0.5044165371086325 -0.4657948477689987 -0.4657948477689987 -0.4657948477689987 0.4952287842061006 
0.4952287842061006 0.4952287842061006 0.4791730901892685 0.4791730901892685 0.4791730901892685 0.151534453661684 0.151534453661684 0.151534453661684 0.1556081887592259 
0.1556081887592259 0.1556081887592259 -0.3410392740906748 -0.3410392740906748 -0.3410392740906748 -0.369695546762882 -0.369695546762882 -0.369695546762882 0.3058785062006446 
0.3058785062006446 0.3058785062006446 0.2881858899024493 0.2881858899024493 0.2881858899024493 -0.445998659063466 -0.445998659063466 -0.445998659063466 -0.4317464478353786 
-0.4317464478353786 -0.4317464478353786 -0.3579401733626981 -0.3579401733626981 -0.3579401733626981 -0.3894843996903704 -0.3894843996903704 -0.3894843996903704 -0.1427359403638591 
-0.1427359403638591 -0.1427359403638591 -0.1583595830539178 -0.1583595830539178 -0.1583595830539178 -0.945970880790366 -0.945970880790366 -0.945970880790366 -0.9525954736385416 
-0.9525954736385416 -0.9525954736385416 -0.2220655120872133 -0.2220655120872133 -0.2220655120872133 -0.2371517728601088 -0.2371517728601088 -0.2371517728601088 0.436464095212491 
0.436464095212491 0.436464095212491 0.4478657969484598 0.4478657969484598 0.4478657969484598 -0.8921044708991542 -0.8921044708991542 -0.8921044708991542 -0.8792964584109556 
-0.8792964584109556 -0.8792964584109556 0.4729897052146098 0.4729897052146098 0.4729897052146098 0.4590532626858059 0.4590532626858059 0.4590532626858059 -0.6971735730066544 
-0.6971735730066544 -0.6971735730066544 -0.7049111381963498 -0.7049111381963498 -0.7049111381963498 -0.3024329482293081 -0.3024329482293081 -0.3024329482293081 -0.2679636328147973 
-0.2679636328147973 -0.2679636328147973 0.03042737466353897 0.03042737466353897 0.03042737466353897 0.01784401996185538 0.01784401996185538 0.01784401996185538 -0.6142746113145856 
-0.6142746113145856 -0.6142746113145856 -0.611123868080258 -0.611123868080258 -0.611123868080258 0.005796274623502501 0.005796274623502501 0.005796274623502501 0.01953719318510447 
0.01953719318510447 0.01953719318510447 0.7057218852306383 0.7057218852306383 0.7057218852306383 0.6933815436949915 0.6933815436949915 0.6933815436949915 0.006527500673293209 
0.006527500673293209 0.006527500673293209 0.001270070531793987 0.001270070531793987 0.001270070531793987 0.9148776343446975 0.9148776343446975 0.9148776343446975 0.9018166046565441 
0.9018166046565441 0.9018166046565441 0.964401469880028 0.964401469880028 0.964401469880028 0.9589036558593933 0.9589036558593933 0.9589036558593933 0.3386064314284548 
0.3386064314284548 0.3386064314284548 0.3210612189478218 0.3210612189478218 0.3210612189478218 0.2333329698791742 0.2333329698791742 0.2333329698791742 0.2182980632585754 
0.2182980632585754 0.2182980632585754 0.004347351371144574 0.004347351371144574 0.004347351371144574 0.3365271562297104 0.3365271562297104 0.3365271562297104 0.3453128607211529 
0.3453128607211529 0.3453128607211529 -0.2732753779186567 -0.2732753779186567 -0.2732753779186567 -0.2498502644393569 -0.2498502644393569 -0.2498502644393569 -0.2008584748727649 
-0.2008584748727649 -0.2008584748727649 -0.2131627717912555 -0.2131627717912555 -0.2131627717912555 -0.7384662348654256 -0.7384662348654256 -0.7384662348654256 -0.7218903274211088 
-0.7218903274211088 -0.7218903274211088 0.124771063889745 0.124771063889745 0.124771063889745 0.1045796277904416 0.1045796277904416 0.1045796277904416 0.3205003119165952 
0.3205003119165952 0.3205003119165952 0.3085133193315084 0.3085133193315084 0.3085133193315084 0.1014755410391666 0.1014755410391666 0.1014755410391666 0.1184295260966606 
0.1184295260966606 0.1184295260966606 -0.5039272769417281 -0.5039272769417281 -0.5039272769417281 -0.4980752336465902 -0.4980752336465902 -0.4980752336465902 -0.2198009425932438 
-0.2198009425932438 -0.2198009425932438 -0.2017104930365365 -0.2017104930365365 -0.2017104930365365 -0.5763194198279299 -0.5763194198279299 -0.5763194198279299 -0.5965484588075078 
-0.5965484588075078 -0.5965484588075078 0.3907856213632332 0.3907856213632332 0.3907856213632332 -0.8226817595933262 -0.8226817595933262 -0.8226817595933262 -0.8232024916665568 
-0.8232024916665568 -0.8232024916665568 -0.3677427546991004 -0.3677427546991004 -0.3677427546991004 -0.3441156632360088 -0.3441156632360088 -0.3441156632360088 -0.08038320313604715 
-0.08038320313604715 -0.08038320313604715 -0.07026720449834818 -0.07026720449834818 -0.07026720449834818 0.5291089337334985 0.5291089337334985 0.5291089337334985 0.5491734920570113 
0.5491734920570113 0.5491734920570113 0.3520844791011227 0.3520844791011227 0.3520844791011227 0.3836283749668033 0.3836283749668033 0.3836283749668033 -0.3782186315847174 
-0.3782186315847174 -0.3782186315847174 0.9094901590071701 0.9094901590071701 0.9094901590071701 0.918072779234418 0.918072779234418 0.918072779234418 0.1910296804037945 
0.1910296804037945 0.1910296804037945 0.1805798691409136 0.1805798691409136 0.1805798691409136 -0.5330878294857295 -0.5330878294857295 -0.5330878294857295 -0.5526700384382202 
-0.5526700384382202 -0.5526700384382202 0.156152422164349 0.156152422164349 0.156152422164349 0.1272087839772443 0.1272087839772443 0.1272087839772443 -0.8430952923194792 
-0.8430952923194792 -0.8430952923194792 -0.8207849032821781 -0.8207849032821781 -0.8207849032821781 -0.06418654512812248 -0.06418654512812248 -0.06418654512812248 -0.07478627693566134 
-0.07478627693566134 -0.07478627693566134 -0.06969206278282886 -0.06969206278282886 -0.06969206278282886 -0.08364314988201678 -0.08364314988201678 -0.08364314988201678 0.005839800456391148 
0.005839800456391148 0.005839800456391148 0.009792918873345928 0.009792918873345928 0.009792918873345928 -0.3553623481976663 -0.3553623481976663 -0.3553623481976663 -0.3938399395143125 
-0.3938399395143125 -0.3938399395143125 0.4155214206607139 0.4155214206607139 0.4155214206607139 0.40943154553107 0.40943154553107 0.40943154553107 -0.09293935513806972 
-0.09293935513806972 -0.09293935513806972 -0.08955642219279325 -0.08955642219279325 -0.08955642219279325 -0.1677553042796857 -0.1677553042796857 -0.1677553042796857 -0.1567811979595337 
-0.1567811979595337 -0.1567811979595337 -0.09572946479735553 -0.09572946479735553 -0.09572946479735553 -0.1097621567307561 -0.1097621567307561 -0.1097621567307561 0.01786054627333173 
0.01786054627333173 0.01786054627333173 -0.002007969528368769 -0.002007969528368769 -0.002007969528368769 -0.1055934705790254 -0.1055934705790254 -0.1055934705790254 -0.7356889282461628 
-0.7356889282461628 -0.7356889282461628 0.4194125746493669 0.4194125746493669 0.4194125746493669 -0.341702939424625 -0.341702939424625 -0.341702939424625 -0.3683172466767689 
-0.3683172466767689 -0.3683172466767689 -0.9572047895171711 -0.9572047895171711 -0.9572047895171711 -0.9556845628281074 -0.9556845628281074 -0.9556845628281074 0.2144132956418123 
0.2144132956418123 0.2144132956418123 0.1777575463546845 0.1777575463546845 0.1777575463546845 0.5507325249186762 0.5507325249186762 0.5507325249186762 0.5834488976180547 
0.5834488976180547 0.5834488976180547 -0.06513771936443694 -0.06513771936443694 -0.06513771936443694 -0.1184503395175835 -0.1184503395175835 -0.1184503395175835 -0.1088232779214273 
-0.1088232779214273 -0.1088232779214273 -0.1038469827716403 -0.1038469827716403 -0.1038469827716403 -0.6069270174265178 -0.6069270174265178 -0.6069270174265178 -0.5964758598655895 
-0.5964758598655895 -0.5964758598655895 0.3072302699749298 0.3072302699749298 0.3072302699749298 0.2933261089312969 0.2933261089312969 0.2933261089312969 0.03323001345024361 
0.03323001345024361 0.03323001345024361 0.02408731681402059 0.02408731681402059 0.02408731681402059 -0.2642682946492425 -0.2642682946492425 -0.2642682946492425 -0.2769962225093293 
-0.2769962225093293 -0.2769962225093293 0.2600588260377278 0.2600588260377278 0.2600588260377278 0.308042428886405 0.308042428886405 0.308042428886405 0.05279856316676526 
0.05279856316676526 0.05279856316676526 0.05293757238446191 0.05293757238446191 0.05293757238446191 -0.009514212301782954 -0.009514212301782954 -0.009514212301782954 -0.001217956372195208 
-0.001217956372195208 -0.001217956372195208 0.9192606641152069 0.9192606641152069 0.9192606641152069 0.9039337677176854 0.9039337677176854 0.9039337677176854 0.1107975627470202 
0.1107975627470202 0.1107975627470202 0.08202011118397742 0.08202011118397742 0.08202011118397742 -0.3586193065123968 -0.3586193065123968 -0.3586193065123968 -0.3629057692595274 
-0.3629057692595274 -0.3629057692595274 -0.9160826383048069 -0.9160826383048069 -0.9160826383048069 -0.03008007057623047 -0.03008007057623047 -0.03008007057623047 0.01252831594748757 
0.01252831594748757 0.01252831594748757 0.6049826522646162 0.6049826522646162 0.6049826522646162 0.5743952738239684 0.5743952738239684 0.5743952738239684 -0.4417202906290917 
-0.4417202906290917 -0.4417202906290917 -0.4491837452631847 -0.4491837452631847 -0.4491837452631847 0.7042043073524573 0.7042043073524573 0.7042043073524573 0.7361998091157306 
0.7361998091157306 0.7361998091157306 -0.1356477657690484 -0.1356477657690484 -0.1356477657690484 -0.07895071630218373 -0.07895071630218373 -0.07895071630218373 -0.9525355656980735 
-0.9525355656980735 -0.9525355656980735 -0.9548051582120014 -0.9548051582120014 -0.9548051582120014 -0.4661504943336479 -0.4661504943336479 -0.4661504943336479 -0.4197682154899125 
-0.4197682154899125 -0.4197682154899125 -0.1524108606856828 -0.1524108606856828 -0.1524108606856828 -0.1188271286695132 -0.1188271286695132 -0.1188271286695132 -0.08668516115890357 
-0.08668516115890357 -0.08668516115890357 -0.09664251818342609 -0.09664251818342609 -0.09664251818342609 0.3674530952654865 0.3674530952654865 0.3674530952654865 0.4115303489302354 
0.4115303489302354 0.4115303489302354 0.1176225435624916 0.1176225435624916 0.1176225435624916 0.06467393176441676 0.06467393176441676 0.06467393176441676 0.5033096932774136 
0.5033096932774136 0.5033096932774136 0.5169591554419145 0.5169591554419145 0.5169591554419145 0.9401556098116941 0.9401556098116941 0.9401556098116941 0.9420617801960348 
0.9420617801960348 0.9420617801960348 0.01251840559396534 0.01251840559396534 0.01251840559396534 -0.008504119882119552 -0.008504119882119552 -0.008504119882119552 0.024462226447347 
0.024462226447347 0.024462226447347 0.0215458043611927 0.0215458043611927 0.0215458043611927 0.1873666831703643 0.1873666831703643 0.1873666831703643 0.2008594385896427 
0.2008594385896427 0.2008594385896427 -0.07871080000074201 -0.07871080000074201 -0.07871080000074201 -0.08448791914122358 -0.08448791914122358 -0.08448791914122358 0.09623431050260142 
0.09623431050260142 0.09623431050260142 0.06344723349149753 0.06344723349149753 0.06344723349149753 -0.3815499312731104 -0.3815499312731104 -0.3815499312731104 -0.3561603258714588 
-0.3561603258714588 -0.3561603258714588 0.3125776968843809 0.3125776968843809 0.3125776968843809 0.2777395671210335 0.2777395671210335 0.2777395671210335 0.8017406582097266 
0.8017406582097266 0.8017406582097266 0.8275368845342111 0.8275368845342111 0.8275368845342111 0.04185979790062293 0.04185979790062293 0.04185979790062293 0.01081571713214831 
0.01081571713214831 0.01081571713214831 0.5331977050443544 0.5331977050443544 0.5331977050443544 0.4942411874581646 0.4942411874581646 0.4942411874581646 -0.4338446966761202 
-0.4338446966761202 -0.4338446966761202 -0.4400776778983579 -0.4400776778983579 -0.4400776778983579 0.1511257068299129 0.1511257068299129 0.1511257068299129 0.1579786971776152 
0.1579786971776152 0.1579786971776152 -0.1253527010028065 -0.1253527010028065 -0.1253527010028065 -0.1024319048382376 -0.1024319048382376 -0.1024319048382376 0.6855303936283401 
0.6855303936283401 0.6855303936283401 0.7078657453271104 0.7078657453271104 0.7078657453271104 -0.6192257265058838 -0.6192257265058838 -0.6192257265058838 -0.6369105181611067 
-0.6369105181611067 -0.6369105181611067 -0.1213054140905398 -0.1213054140905398 -0.1213054140905398 -0.1357249881001096 -0.1357249881001096 -0.1357249881001096 0.6051845097188733 
0.6051845097188733 0.6051845097188733 0.574215101085904 0.574215101085904 0.574215101085904 0.1708026957698497 0.1708026957698497 0.1708026957698497 0.1342645496464914 
0.1342645496464914 0.1342645496464914 0.6674060725711209 0.6674060725711209 0.6674060725711209 0.6991649897335593 0.6991649897335593 0.6991649897335593 0.1687832346948799 
0.1687832346948799 0.1687832346948799 0.1594944565851762 0.1594944565851762 0.1594944565851762 0.4594902410403999 0.4594902410403999 0.4594902410403999 0.4753610291151639 
0.4753610291151639 0.4753610291151639 -0.2104044403076248 -0.2104044403076248 -0.2104044403076248 -0.1886269624542843 -0.1886269624542843 -0.1886269624542843 0.9346844875371143 
0.9346844875371143 0.9346844875371143 0.9355613116831086 0.9355613116831086 0.9355613116831086 0.0414984572649407 0.0414984572649407 0.0414984572649407 0.04206958383661631 
0.04206958383661631 0.04206958383661631 0.573132175411591 0.573132175411591 0.573132175411591 0.5389198140267392 0.5389198140267392 0.5389198140267392 -0.05008707231823972 
-0.05008707231823972 -0.05008707231823972 -0.03025759143477224 -0.03025759143477224 -0.03025759143477224 -0.1114458940391272 -0.1114458940391272 -0.1114458940391272 -0.09094289526151675 
-0.09094289526151675 -0.09094289526151675 0.3303888601307939 0.3303888601307939 0.3303888601307939 0.3031873309604788 0.3031873309604788 0.3031873309604788 -0.1610566049358556 
-0.1610566049358556 -0.1610566049358556 -0.1535974641734246 -0.1535974641734246 -0.1535974641734246 -0.1445539363831724 -0.1445539363831724 -0.1445539363831724 -0.1700295448840357 
-0.1700295448840357 -0.1700295448840357 0.0005905748223400088 0.0005905748223400088 0.0005905748223400088 -0.004733547042617319 -0.004733547042617319 -0.004733547042617319 -0.01001376319652418 
-0.01001376319652418 -0.01001376319652418 -0.01411306389463214 -0.01411306389463214 -0.01411306389463214 -0.6511419503910548 -0.6511419503910548 -0.6511419503910548 -0.692453840686585 
-0.692453840686585 -0.692453840686585 -0.7020400495221898 -0.7020400495221898 -0.7020400495221898 -0.009165959933410461 -0.009165959933410461 -0.009165959933410461 0.006445493079589987 
0.006445493079589987 0.006445493079589987 0.01289281566577891 0.01289281566577891 0.01289281566577891 -0.5609990643861894 -0.5609990643861894 -0.5609990643861894 -0.5778810107354835 
-0.5778810107354835 -0.5778810107354835 -0.5560336173155755 -0.5560336173155755 -0.5560336173155755 -0.8176993286587324 -0.8176993286587324 -0.8176993286587324 -0.8001705957844757 
-0.8001705957844757 -0.8001705957844757 -0.7874696933347343 -0.7874696933347343 -0.7874696933347343 -0.5145161128871927 -0.5145161128871927 -0.5145161128871927 -0.5006401217006214 
-0.5006401217006214 -0.5006401217006214 -0.4738549610964693 -0.4738549610964693 -0.4738549610964693 -0.7112659402663498 -0.7112659402663498 -0.7112659402663498 -0.7150372131041364 
-0.7150372131041364 -0.7150372131041364 -0.6790762171281408 -0.6790762171281408 -0.6790762171281408 -0.0611819743992934 -0.0611819743992934 -0.0611819743992934 0.2277411311639741 
0.2277411311639741 0.2277411311639741 0.2352214122882103 0.2352214122882103 0.2352214122882103 0.2516365770893854 0.2516365770893854 0.2516365770893854 0.1469904294777625 
0.1469904294777625 0.1469904294777625 0.1697852802439961 0.1697852802439961 0.1697852802439961 0.1309375515440595 0.1309375515440595 0.1309375515440595 0.422737710566217 
0.422737710566217 0.422737710566217 0.4501430984674864 0.4501430984674864 0.4501430984674864 0.4295266795543694 0.4295266795543694 0.4295266795543694 -0.4529661784878958 
-0.4529661784878958 -0.4529661784878958 -0.4413264030504988 -0.4413264030504988 -0.4413264030504988 -0.413907827282336 -0.413907827282336 -0.413907827282336 -0.3411492628145963 
-0.3411492628145963 -0.3411492628145963 -0.3251120750150817 -0.3251120750150817 -0.3251120750150817 -0.3364332922108438 -0.3364332922108438 -0.3364332922108438 -0.1089426598882587 
-0.1089426598882587 -0.1089426598882587 -0.09454641358660226 -0.09454641358660226 -0.09454641358660226 -0.06337059745436666 -0.06337059745436666 -0.06337059745436666 -0.05660017083094263 
-0.05660017083094263 -0.05660017083094263 -0.04913522833346421 -0.04913522833346421 -0.04913522833346421 -0.0352613578799174 -0.0352613578799174 -0.0352613578799174 -0.1964793505277056 
-0.1964793505277056 -0.1964793505277056 -0.1837302487713671 -0.1837302487713671 -0.1837302487713671 -0.1689142496432024 -0.1689142496432024 -0.1689142496432024 0.351660158145045 
0.351660158145045 0.351660158145045 0.3744147028974915 0.3744147028974915 0.3744147028974915 0.3964055061752415 0.3964055061752415 0.3964055061752415 -0.3398766937135353 
-0.3398766937135353 -0.3398766937135353 -0.3696963473994924 -0.3696963473994924 -0.3696963473994924 -0.3983842211940898 -0.3983842211940898 -0.3983842211940898 0.1452676176924441 
0.1452676176924441 0.1452676176924441 0.1269846447097172 0.1269846447097172 0.1269846447097172 0.1134590129644433 0.1134590129644433 0.1134590129644433 -0.5716093632318583 
-0.5716093632318583 -0.5716093632318583 -0.5773120190335386 -0.5773120190335386 -0.5773120190335386 -0.5938869379209158 -0.5938869379209158 -0.5938869379209158 -0.1882513813627664 
-0.1882513813627664 -0.1882513813627664 -0.1891306842365685 -0.1891306842365685 -0.1891306842365685 -0.1766037288983434 -0.1766037288983434 -0.1766037288983434 0.1130843287658355 
0.1130843287658355 0.1130843287658355 0.1437374008354323 0.1437374008354323 0.1437374008354323 0.1679763967209522 0.1679763967209522 0.1679763967209522 0.8686712515654771 
0.8686712515654771 0.8686712515654771 0.8564398725667934 0.8564398725667934 0.8564398725667934 0.8469041395012518 0.8469041395012518 0.8469041395012518 -0.8874791443423411 
-0.8874791443423411 -0.8874791443423411 -0.8821351393258442 -0.8821351393258442 -0.8821351393258442 -0.8725075022378153 -0.8725075022378153 -0.8725075022378153 0.1832054388570145 
0.1832054388570145 0.1832054388570145 0.1950344150372804 0.1950344150372804 0.1950344150372804 0.213654690173709 0.213654690173709 0.213654690173709 -0.2152352018311277 
-0.2152352018311277 -0.2152352018311277 -0.1933336886806674 -0.1933336886806674 -0.1933336886806674 -0.1809252913221498 -0.1809252913221498 -0.1809252913221498 -0.9646472570731973 
-0.9646472570731973 -0.9646472570731973 -0.9628743179836602 -0.9628743179836602 -0.9628743179836602 -0.9598805518347416 -0.9598805518347416 -0.9598805518347416 0.3374362362206378 
0.3374362362206378 0.3374362362206378 0.3351546236168644 0.3351546236168644 0.3351546236168644 0.3528678929018517 0.3528678929018517 0.3528678929018517 -0.9412955715872651 