Title = Triangle100
FileType = Solution
Variables = q
Zone T = Triangle100
ZoneType = FETriangle
Nodes = 99072
Elements = 33024
DataPacking = Block
StrandID = 9
SolutionTime = 0.8
0.1707185725237216 0.1707185725237216 0.1707185725237216 0.1705735859901016 0.1705735859901016 0.1705735859901016 0.1548117543281286 0.1548117543281286 0.1548117543281286 -0.08916303394425643 
-0.08916303394425643 -0.08916303394425643 -0.1205154485979635 -0.1205154485979635 -0.1205154485979635 -0.01499833289925459 -0.01499833289925459 -0.01499833289925459 -0.01624950168892949 
-0.01624950168892949 -0.01624950168892949 0.9003268029838117 0.9003268029838117 0.9003268029838117 0.9004825259796735 0.9004825259796735 0.9004825259796735 -0.5504928672249835 
-0.5504928672249835 -0.5504928672249835 -0.5642194623191298 -0.5642194623191298 -0.5642194623191298 -0.7238147361841636 -0.7238147361841636 -0.7238147361841636 -0.7079042614959997 
-0.7079042614959997 -0.7079042614959997 0.3327507040203127 0.3327507040203127 0.3327507040203127 0.344304551906308 0.344304551906308 0.344304551906308 0.003896646461918771 
0.003896646461918771 0.003896646461918771 0.00923039184668409 0.00923039184668409 0.00923039184668409 -0.3802218520173498 -0.3802218520173498 -0.3802218520173498 -0.3733990548629987 
-0.3733990548629987 -0.3733990548629987 -0.04733818301935808 -0.04733818301935808 -0.04733818301935808 -0.03563757334124178 -0.03563757334124178 -0.03563757334124178 -0.03229936476275493 
-0.03229936476275493 -0.03229936476275493 -0.7917947765949878 -0.7917947765949878 -0.7917947765949878 -0.8000645982604803 -0.8000645982604803 -0.8000645982604803 0.880446839868582 
0.880446839868582 0.880446839868582 0.8733896076836839 0.8733896076836839 0.8733896076836839 0.9077589568532931 0.9077589568532931 0.9077589568532931 0.9078443438361289 
0.9078443438361289 0.9078443438361289 -0.5391794657104847 -0.5391794657104847 -0.5391794657104847 -0.5503342043443717 -0.5503342043443717 -0.5503342043443717 -0.06620920551097033 
-0.06620920551097033 -0.06620920551097033 -0.07100375671869644 -0.07100375671869644 -0.07100375671869644 -0.07328848367181888 -0.07328848367181888 -0.07328848367181888 -0.6884705504474852 
-0.6884705504474852 -0.6884705504474852 -0.7037393829064149 -0.7037393829064149 -0.7037393829064149 -0.7135937155990213 -0.7135937155990213 -0.7135937155990213 0.5795864295100429 
0.5795864295100429 0.5795864295100429 0.5679117703856105 0.5679117703856105 0.5679117703856105 0.6071034085409589 0.6071034085409589 0.6071034085409589 -0.6667448761010526 
-0.6667448761010526 -0.6667448761010526 -0.6858454285518333 -0.6858454285518333 -0.6858454285518333 -0.6964249269919507 -0.6964249269919507 -0.6964249269919507 0.1359485968909143 
0.1359485968909143 0.1359485968909143 0.1415174110386082 0.1415174110386082 0.1415174110386082 0.1640784596211377 0.1640784596211377 0.1640784596211377 -0.4104915923411501 
-0.4104915923411501 -0.4104915923411501 -0.4250046322967179 -0.4250046322967179 -0.4250046322967179 -0.4320047971112284 -0.4320047971112284 -0.4320047971112284 -0.8746533073683339 
-0.8746533073683339 -0.8746533073683339 -0.8770976824209069 -0.8770976824209069 -0.8770976824209069 -0.8878569051884041 -0.8878569051884041 -0.8878569051884041 -0.2579898884948435 
-0.2579898884948435 -0.2579898884948435 -0.2948341486335282 -0.2948341486335282 -0.2948341486335282 0.8880591766134649 0.8880591766134649 0.8880591766134649 0.8922314501005615 
0.8922314501005615 0.8922314501005615 0.3215452195298812 0.3215452195298812 0.3215452195298812 0.3441435835069565 0.3441435835069565 0.3441435835069565 -0.2855618531218879 
-0.2855618531218879 -0.2855618531218879 -0.2811358424641495 -0.2811358424641495 -0.2811358424641495 0.701031870075109 0.701031870075109 0.701031870075109 0.6876169165823339 
0.6876169165823339 0.6876169165823339 -0.2372856360426183 -0.2372856360426183 -0.2372856360426183 -0.2629799779888337 -0.2629799779888337 -0.2629799779888337 0.2397067228919136 
0.2397067228919136 0.2397067228919136 0.2204655074537788 0.2204655074537788 0.2204655074537788 0.6490609581806109 0.6490609581806109 0.6490609581806109 0.6719700094991322 
0.6719700094991322 0.6719700094991322 -0.2208976735606286 -0.2208976735606286 -0.2208976735606286 -0.2054953437863932 -0.2054953437863932 -0.2054953437863932 0.5166276857563696 
0.5166276857563696 0.5166276857563696 0.4945873144698563 0.4945873144698563 0.4945873144698563 0.3252101360825942 0.3252101360825942 0.3252101360825942 0.3305730578284136 
0.3305730578284136 0.3305730578284136 -0.3437773849926243 -0.3437773849926243 -0.3437773849926243 -0.3073375435596068 -0.3073375435596068 -0.3073375435596068 0.07133621107579026 
0.07133621107579026 0.07133621107579026 0.08232727162210141 0.08232727162210141 0.08232727162210141 0.63451544760333 0.63451544760333 0.63451544760333 0.6203432867391281 
0.6203432867391281 0.6203432867391281 0.1570749101095935 0.1570749101095935 0.1570749101095935 0.1462276292827766 0.1462276292827766 0.1462276292827766 -0.2297019213211589 
-0.2297019213211589 -0.2297019213211589 -0.2283146252779492 -0.2283146252779492 -0.2283146252779492 -0.04212369403431412 -0.04212369403431412 -0.04212369403431412 -0.03838432548547996 
-0.03838432548547996 -0.03838432548547996 0.8572107980785426 0.8572107980785426 0.8572107980785426 0.8593588876194512 0.8593588876194512 0.8593588876194512 -0.1222277052324705 
-0.1222277052324705 -0.1222277052324705 -0.1298586693412382 -0.1298586693412382 -0.1298586693412382 -0.135838359116476 -0.135838359116476 -0.135838359116476 -0.1642676944271873 
-0.1642676944271873 -0.1642676944271873 -0.8574462181534438 -0.8574462181534438 -0.8574462181534438 -0.4853363288325824 -0.4853363288325824 -0.4853363288325824 -0.5073875250643964 
-0.5073875250643964 -0.5073875250643964 -0.4207467121372517 -0.4207467121372517 -0.4207467121372517 -0.3993910346557358 -0.3993910346557358 -0.3993910346557358 -0.02722682830621085 
-0.02722682830621085 -0.02722682830621085 0.01322206231747961 0.01322206231747961 0.01322206231747961 -0.2137359654409289 -0.2137359654409289 -0.2137359654409289 -0.2142804489787915 
-0.2142804489787915 -0.2142804489787915 0.4078082318050549 0.4078082318050549 0.4078082318050549 0.3786030232199042 0.3786030232199042 0.3786030232199042 0.6345718339576363 
0.6345718339576363 0.6345718339576363 0.6328885147858649 0.6328885147858649 0.6328885147858649 -0.2926711924479918 -0.2926711924479918 -0.2926711924479918 -0.2947839569496327 
-0.2947839569496327 -0.2947839569496327 0.2496030041752376 0.2496030041752376 0.2496030041752376 0.2201752126503275 0.2201752126503275 0.2201752126503275 -0.1418288295980328 
-0.1418288295980328 -0.1418288295980328 -0.1349919764493485 -0.1349919764493485 -0.1349919764493485 0.1866149111495639 0.1866149111495639 0.1866149111495639 0.1863372579847541 
0.1863372579847541 0.1863372579847541 -0.5801153469133389 -0.5801153469133389 -0.5801153469133389 -0.5684683524478032 -0.5684683524478032 -0.5684683524478032 0.1520943155711015 
0.1520943155711015 0.1520943155711015 0.1253462755210007 0.1253462755210007 0.1253462755210007 -0.3280982738274976 -0.3280982738274976 -0.3280982738274976 -0.3320031706845248 
-0.3320031706845248 -0.3320031706845248 0.8983318818106711 0.8983318818106711 0.8983318818106711 0.9013063075947489 0.9013063075947489 0.9013063075947489 0.1703018703271015 
0.1703018703271015 0.1703018703271015 0.1624312996884791 0.1624312996884791 0.1624312996884791 -0.8956313520511633 -0.8956313520511633 -0.8956313520511633 -0.8889229202124811 
-0.8889229202124811 -0.8889229202124811 0.5874965445156386 0.5874965445156386 0.5874965445156386 0.5918995249429275 0.5918995249429275 0.5918995249429275 0.5966014886646465 
0.5966014886646465 0.5966014886646465 0.7794298681750018 0.7794298681750018 0.7794298681750018 0.7963139994717532 0.7963139994717532 0.7963139994717532 0.7896965310290358 
0.7896965310290358 0.7896965310290358 0.6301296398898811 0.6301296398898811 0.6301296398898811 0.6155485613406031 0.6155485613406031 0.6155485613406031 0.6005586108908513 
0.6005586108908513 0.6005586108908513 0.1353935740938684 0.1353935740938684 0.1353935740938684 0.1202213057856999 0.1202213057856999 0.1202213057856999 0.1058320998060691 
0.1058320998060691 0.1058320998060691 -0.147894969503322 -0.147894969503322 -0.147894969503322 -0.130447840408008 -0.130447840408008 -0.130447840408008 -0.1193414970736294 
-0.1193414970736294 -0.1193414970736294 -0.639767307418484 -0.639767307418484 -0.639767307418484 -0.6341923473368827 -0.6341923473368827 -0.6341923473368827 0.1349270185509428 
0.1349270185509428 0.1349270185509428 0.1207448938472556 0.1207448938472556 0.1207448938472556 0.1331066144137449 0.1331066144137449 0.1331066144137449 0.3855759596660845 
0.3855759596660845 0.3855759596660845 0.4018848223701228 0.4018848223701228 0.4018848223701228 0.393515063660086 0.393515063660086 0.393515063660086 0.2270908882726334 
0.2270908882726334 0.2270908882726334 0.2094825445092327 0.2094825445092327 0.2094825445092327 0.1960769881655741 0.1960769881655741 0.1960769881655741 -0.2772247319899731 
-0.2772247319899731 -0.2772247319899731 -0.2544906887050129 -0.2544906887050129 -0.2544906887050129 -0.2519414666636618 -0.2519414666636618 -0.2519414666636618 0.2028602739824055 
0.2028602739824055 0.2028602739824055 0.2060375519618891 0.2060375519618891 0.2060375519618891 0.2196442101880519 0.2196442101880519 0.2196442101880519 -0.06039114624600017 
-0.06039114624600017 -0.06039114624600017 -0.05610485309403821 -0.05610485309403821 -0.05610485309403821 -0.07390262175709277 -0.07390262175709277 -0.07390262175709277 0.2756245902594749 
0.2756245902594749 0.2756245902594749 0.2760340107731529 0.2760340107731529 0.2760340107731529 0.2794772431216264 0.2794772431216264 0.2794772431216264 0.599957937448714 
0.599957937448714 0.599957937448714 0.6034137351435995 0.6034137351435995 0.6034137351435995 0.9020865455895561 0.9020865455895561 0.9020865455895561 0.9024467979758455 
0.9024467979758455 0.9024467979758455 0.9014694321213363 0.9014694321213363 0.9014694321213363 -0.2532488786036685 -0.2532488786036685 -0.2532488786036685 -0.2838325157703041 
-0.2838325157703041 -0.2838325157703041 0.5320520987655847 0.5320520987655847 0.5320520987655847 0.5396134660091221 0.5396134660091221 0.5396134660091221 0.04674005567939801 
0.04674005567939801 0.04674005567939801 0.02822365563960572 0.02822365563960572 0.02822365563960572 0.4391686072419818 0.4391686072419818 0.4391686072419818 0.4732972128096831 
0.4732972128096831 0.4732972128096831 -0.766935256227425 -0.766935256227425 -0.766935256227425 -0.7788213500861041 -0.7788213500861041 -0.7788213500861041 -0.08598365618651171 
-0.08598365618651171 -0.08598365618651171 -0.07857457019187059 -0.07857457019187059 -0.07857457019187059 0.06403185331207713 0.06403185331207713 0.06403185331207713 0.07070396240359537 
0.07070396240359537 0.07070396240359537 -0.486414247095553 -0.486414247095553 -0.486414247095553 -0.4992312989298083 -0.4992312989298083 -0.4992312989298083 0.6249815304347142 
0.6249815304347142 0.6249815304347142 0.6321763059349765 0.6321763059349765 0.6321763059349765 -0.2018835505838266 -0.2018835505838266 -0.2018835505838266 -0.2399903222464513 
-0.2399903222464513 -0.2399903222464513 0.1360109812805937 0.1360109812805937 0.1360109812805937 0.1675625887732166 0.1675625887732166 0.1675625887732166 0.5935463798895184 
0.5935463798895184 0.5935463798895184 0.58833943405266 0.58833943405266 0.58833943405266 -0.07807064913333094 -0.07807064913333094 -0.07807064913333094 -0.09739353056678432 
-0.09739353056678432 -0.09739353056678432 0.1641145999321858 0.1641145999321858 0.1641145999321858 0.1907152418672901 0.1907152418672901 0.1907152418672901 -0.1806840287015595 
-0.1806840287015595 -0.1806840287015595 -0.1977467240008521 -0.1977467240008521 -0.1977467240008521 0.05070261103854108 0.05070261103854108 0.05070261103854108 0.05422025629789429 
0.05422025629789429 0.05422025629789429 0.06385450547833366 0.06385450547833366 0.06385450547833366 0.0615113311672113 0.0615113311672113 0.0615113311672113 -0.1870243487508884 
-0.1870243487508884 -0.1870243487508884 -0.2100721923348229 -0.2100721923348229 -0.2100721923348229 -0.3889619272751499 -0.3889619272751499 -0.3889619272751499 -0.3672174017101543 
-0.3672174017101543 -0.3672174017101543 0.5812074726397048 0.5812074726397048 0.5812074726397048 0.6004860400097928 0.6004860400097928 0.6004860400097928 0.4750363149189104 
0.4750363149189104 0.4750363149189104 0.4890949799527218 0.4890949799527218 0.4890949799527218 0.09264211499797317 0.09264211499797317 0.09264211499797317 0.1164430000379647 
0.1164430000379647 0.1164430000379647 -0.008940693012917706 -0.008940693012917706 -0.008940693012917706 -0.02151764796446074 -0.02151764796446074 -0.02151764796446074 0.3616059479400405 
0.3616059479400405 0.3616059479400405 0.3511233386995035 0.3511233386995035 0.3511233386995035 0.03880528276201177 0.03880528276201177 0.03880528276201177 0.02996912178171237 
0.02996912178171237 0.02996912178171237 0.77118245806996 0.77118245806996 0.77118245806996 0.7542666641453081 0.7542666641453081 0.7542666641453081 0.4383525451138431 
0.4383525451138431 0.4383525451138431 0.4307226773716258 0.4307226773716258 0.4307226773716258 -0.2341200051249868 -0.2341200051249868 -0.2341200051249868 -0.2366541237358382 
-0.2366541237358382 -0.2366541237358382 -0.1506154232305501 -0.1506154232305501 -0.1506154232305501 -0.1613857609706031 -0.1613857609706031 -0.1613857609706031 0.6153868855878781 
0.6153868855878781 0.6153868855878781 0.6102587928530192 0.6102587928530192 0.6102587928530192 -0.04137587521983319 -0.04137587521983319 -0.04137587521983319 -0.06615689998144882 
-0.06615689998144882 -0.06615689998144882 0.3212549390562364 0.3212549390562364 0.3212549390562364 0.3401175355464273 0.3401175355464273 0.3401175355464273 -0.09045599583517507 
-0.09045599583517507 -0.09045599583517507 -0.09684787597471087 -0.09684787597471087 -0.09684787597471087 -0.2574216288133619 -0.2574216288133619 -0.2574216288133619 -0.2716007335074948 
-0.2716007335074948 -0.2716007335074948 0.6104184547959839 0.6104184547959839 0.6104184547959839 0.01659219379178647 0.01659219379178647 0.01659219379178647 0.008230406185822424 
0.008230406185822424 0.008230406185822424 0.1777636915073531 0.1777636915073531 0.1777636915073531 0.2188676551642153 0.2188676551642153 0.2188676551642153 0.2369636842509655 
0.2369636842509655 0.2369636842509655 0.2209886859646418 0.2209886859646418 0.2209886859646418 0.104135420253989 0.104135420253989 0.104135420253989 0.1381657313819673 
0.1381657313819673 0.1381657313819673 -0.564058163020611 -0.564058163020611 -0.564058163020611 -0.5829624533085576 -0.5829624533085576 -0.5829624533085576 -0.5267306212112564 
-0.5267306212112564 -0.5267306212112564 -0.5443509702156029 -0.5443509702156029 -0.5443509702156029 0.676071781207541 0.676071781207541 0.676071781207541 0.6589134419110559 
0.6589134419110559 0.6589134419110559 -0.2668813087125221 -0.2668813087125221 -0.2668813087125221 -0.2953284777429923 -0.2953284777429923 -0.2953284777429923 -0.2012948311421052 
-0.2012948311421052 -0.2012948311421052 -0.1926145192315526 -0.1926145192315526 -0.1926145192315526 -0.3164371197228982 -0.3164371197228982 -0.3164371197228982 -0.3223034500430748 
-0.3223034500430748 -0.3223034500430748 -0.6203140336253081 -0.6203140336253081 -0.6203140336253081 -0.4391333495636516 -0.4391333495636516 -0.4391333495636516 -0.4718321986064744 
-0.4718321986064744 -0.4718321986064744 -0.8819401999730841 -0.8819401999730841 -0.8819401999730841 -0.8875100356834175 -0.8875100356834175 -0.8875100356834175 0.4653266269970255 
0.4653266269970255 0.4653266269970255 0.4599360711101055 0.4599360711101055 0.4599360711101055 0.8371121746675496 0.8371121746675496 0.8371121746675496 0.8299671398607991 
0.8299671398607991 0.8299671398607991 0.4724763767862895 0.4724763767862895 0.4724763767862895 0.4720406575822458 0.4720406575822458 0.4720406575822458 -0.8873847114340832 
-0.8873847114340832 -0.8873847114340832 0.4724498645143878 0.4724498645143878 0.4724498645143878 0.4503023639269208 0.4503023639269208 0.4503023639269208 -0.2155721992791617 
-0.2155721992791617 -0.2155721992791617 -0.2341488583527518 -0.2341488583527518 -0.2341488583527518 -0.1887949536465924 -0.1887949536465924 -0.1887949536465924 -0.2028496419101508 
-0.2028496419101508 -0.2028496419101508 0.5128416163398651 0.5128416163398651 0.5128416163398651 0.4972615358167377 0.4972615358167377 0.4972615358167377 0.07555563313791677 
0.07555563313791677 0.07555563313791677 0.1006978906317589 0.1006978906317589 0.1006978906317589 -0.5952971408981731 -0.5952971408981731 -0.5952971408981731 -0.6098087466512629 
-0.6098087466512629 -0.6098087466512629 0.3266754331008497 0.3266754331008497 0.3266754331008497 0.3282398160346659 0.3282398160346659 0.3282398160346659 -0.4422826456428056 
-0.4422826456428056 -0.4422826456428056 -0.4514861759204676 -0.4514861759204676 -0.4514861759204676 -0.5230499305728468 -0.5230499305728468 -0.5230499305728468 -0.5370606253552135 
-0.5370606253552135 -0.5370606253552135 -0.02800902224581644 -0.02800902224581644 -0.02800902224581644 -0.0200652302394633 -0.0200652302394633 -0.0200652302394633 -0.2005872107346716 
-0.2005872107346716 -0.2005872107346716 -0.2123342643944919 -0.2123342643944919 -0.2123342643944919 -0.4922907050656707 -0.4922907050656707 -0.4922907050656707 -0.4753194215081096 
-0.4753194215081096 -0.4753194215081096 0.2233497265934609 0.2233497265934609 0.2233497265934609 0.2206798783496401 0.2206798783496401 0.2206798783496401 -0.2433447259892548 
-0.2433447259892548 -0.2433447259892548 -0.2310945008967575 -0.2310945008967575 -0.2310945008967575 0.8138088282552338 0.8138088282552338 0.8138088282552338 0.2857529743287494 
0.2857529743287494 0.2857529743287494 0.06137871352652471 0.06137871352652471 0.06137871352652471 0.1290826789894398 0.1290826789894398 0.1290826789894398 0.1097000141237351 
0.1097000141237351 0.1097000141237351 -0.3178330244273547 -0.3178330244273547 -0.3178330244273547 -0.2928978783737133 -0.2928978783737133 -0.2928978783737133 -0.2704399053286423 
-0.2704399053286423 -0.2704399053286423 -0.3099566402721765 -0.3099566402721765 -0.3099566402721765 -0.3777917708449925 -0.3777917708449925 -0.3777917708449925 -0.3540836574550393 
-0.3540836574550393 -0.3540836574550393 -0.1585558773781191 -0.1585558773781191 -0.1585558773781191 -0.143794024647594 -0.143794024647594 -0.143794024647594 -0.8033599755328533 
-0.8033599755328533 -0.8033599755328533 -0.7757620552302537 -0.7757620552302537 -0.7757620552302537 -0.4149587939785198 -0.4149587939785198 -0.4149587939785198 -0.4497855593903161 
-0.4497855593903161 -0.4497855593903161 0.8939854825118663 0.8939854825118663 0.8939854825118663 0.8858542498351534 0.8858542498351534 0.8858542498351534 0.5726127988788079 
0.5726127988788079 0.5726127988788079 0.5509915348532828 0.5509915348532828 0.5509915348532828 0.06268966213531808 0.06268966213531808 0.06268966213531808 0.07984480946767435 
0.07984480946767435 0.07984480946767435 0.7334611569157362 0.7334611569157362 0.7334611569157362 0.7099794708290209 0.7099794708290209 0.7099794708290209 0.2481088186412804 
0.2481088186412804 0.2481088186412804 0.237326729619815 0.237326729619815 0.237326729619815 -0.207116001136555 -0.207116001136555 -0.207116001136555 -0.2493831999448116 
-0.2493831999448116 -0.2493831999448116 0.1401112469339063 0.1401112469339063 0.1401112469339063 0.1397638399662886 0.1397638399662886 0.1397638399662886 0.3014975533368558 
0.3014975533368558 0.3014975533368558 0.2690381986562813 0.2690381986562813 0.2690381986562813 0.1420554820040596 0.1420554820040596 0.1420554820040596 0.1160258797475813 
0.1160258797475813 0.1160258797475813 -0.06669555248758599 -0.06669555248758599 -0.06669555248758599 -0.8754579883668954 -0.8754579883668954 -0.8754579883668954 -0.8610401059203492 
-0.8610401059203492 -0.8610401059203492 -0.3695469359004029 -0.3695469359004029 -0.3695469359004029 -0.4091366365815504 -0.4091366365815504 -0.4091366365815504 -0.1833075175247174 
-0.1833075175247174 -0.1833075175247174 -0.2176709168519561 -0.2176709168519561 -0.2176709168519561 0.6395850826072561 0.6395850826072561 0.6395850826072561 0.6175123066283501 
0.6175123066283501 0.6175123066283501 -0.6492904790787517 -0.6492904790787517 -0.6492904790787517 -0.6340992477877049 -0.6340992477877049 -0.6340992477877049 -0.2831161991547865 
-0.2831161991547865 -0.2831161991547865 -0.2372181766780415 -0.2372181766780415 -0.2372181766780415 0.2820363325502003 0.2820363325502003 0.2820363325502003 0.2664987866278296 
0.2664987866278296 0.2664987866278296 -0.8749444916871673 -0.8749444916871673 -0.8749444916871673 -0.862038312727694 -0.862038312727694 -0.862038312727694 0.1891607273742785 
0.1891607273742785 0.1891607273742785 0.1442958062380018 0.1442958062380018 0.1442958062380018 -0.008817527166966366 -0.008817527166966366 -0.008817527166966366 -0.01202407817549161 
-0.01202407817549161 -0.01202407817549161 0.8820610522419536 0.8820610522419536 0.8820610522419536 0.8730000110389402 0.8730000110389402 0.8730000110389402 -0.0354594236222003 
-0.0354594236222003 -0.0354594236222003 -0.0457159369677793 -0.0457159369677793 -0.0457159369677793 0.2868291007748002 0.2868291007748002 0.2868291007748002 0.3289083800672742 
0.3289083800672742 0.3289083800672742 -0.5189434586316325 -0.5189434586316325 -0.5189434586316325 -0.5522030021734331 -0.5522030021734331 -0.5522030021734331 -0.8534027250229128 
-0.8534027250229128 -0.8534027250229128 -0.8572018907201994 -0.8572018907201994 -0.8572018907201994 0.2734867761276963 0.2734867761276963 0.2734867761276963 0.2486039576822152 
0.2486039576822152 0.2486039576822152 0.2719788258517971 0.2719788258517971 0.2719788258517971 0.289534921579205 0.289534921579205 0.289534921579205 -0.8263990905154373 
-0.8263990905154373 -0.8263990905154373 -0.8388482040085947 -0.8388482040085947 -0.8388482040085947 0.03978571707088727 0.03978571707088727 0.03978571707088727 0.0497492513598326 
0.0497492513598326 0.0497492513598326 0.8749910283676623 0.8749910283676623 0.8749910283676623 0.8725999452280058 0.8725999452280058 0.8725999452280058 0.2942778515695433 
0.2942778515695433 0.2942778515695433 0.2909041948931533 0.2909041948931533 0.2909041948931533 -0.4676965666022996 -0.4676965666022996 -0.4676965666022996 -0.5057974675379742 
-0.5057974675379742 -0.5057974675379742 0.6028056745850446 0.6028056745850446 0.6028056745850446 0.5995252311619035 0.5995252311619035 0.5995252311619035 0.1160354440824973 
0.1160354440824973 0.1160354440824973 0.09197611436528931 0.09197611436528931 0.09197611436528931 0.03385965159034433 0.03385965159034433 0.03385965159034433 0.07783372374602726 
0.07783372374602726 0.07783372374602726 0.48815007163994 0.48815007163994 0.48815007163994 0.464802909626729 0.464802909626729 0.464802909626729 0.5555744611345115 
0.5555744611345115 0.5555744611345115 0.5675294029217451 0.5675294029217451 0.5675294029217451 0.443579792788396 0.443579792788396 0.443579792788396 0.4288442610934103 
0.4288442610934103 0.4288442610934103 0.08720268905592835 0.08720268905592835 0.08720268905592835 0.06020283365808228 0.06020283365808228 0.06020283365808228 -0.02284933115991586 
-0.02284933115991586 -0.02284933115991586 -0.02867057567059777 -0.02867057567059777 -0.02867057567059777 -0.1344060004530142 -0.1344060004530142 -0.1344060004530142 -0.1266795192052051 
-0.1266795192052051 -0.1266795192052051 0.2050725994153713 0.2050725994153713 0.2050725994153713 0.237124652614105 0.237124652614105 0.237124652614105 0.9034200765840101 
0.9034200765840101 0.9034200765840101 0.9033639950507576 0.9033639950507576 0.9033639950507576 0.0695094819941002 0.0695094819941002 0.0695094819941002 0.1183104872421874 
0.1183104872421874 0.1183104872421874 0.6379736040498534 0.6379736040498534 0.6379736040498534 0.6653031357119716 0.6653031357119716 0.6653031357119716 0.1975517695472145 
0.1975517695472145 0.1975517695472145 0.2542681189896589 0.2542681189896589 0.2542681189896589 -0.4495251531355452 -0.4495251531355452 -0.4495251531355452 -0.429557751560112 
-0.429557751560112 -0.429557751560112 0.8207366873261948 0.8207366873261948 0.8207366873261948 0.8379094371086349 0.8379094371086349 0.8379094371086349 0.3982447646215773 
0.3982447646215773 0.3982447646215773 0.3967944556625188 0.3967944556625188 0.3967944556625188 -0.5640608378892941 -0.5640608378892941 -0.5640608378892941 -0.5347774555284324 
-0.5347774555284324 -0.5347774555284324 0.02578952791594329 0.02578952791594329 0.02578952791594329 0.04165908740520143 0.04165908740520143 0.04165908740520143 -0.7044720998128244 
-0.7044720998128244 -0.7044720998128244 -0.72190179417091 -0.72190179417091 -0.72190179417091 -0.8266771384719269 -0.8266771384719269 -0.8266771384719269 -0.8106604751642698 
-0.8106604751642698 -0.8106604751642698 -0.4274950170788865 -0.4274950170788865 -0.4274950170788865 -0.4055763592421082 -0.4055763592421082 -0.4055763592421082 -0.3909070304987065 
-0.3909070304987065 -0.3909070304987065 -0.3780781983395363 -0.3780781983395363 -0.3780781983395363 0.3894383894745859 0.3894383894745859 0.3894383894745859 0.3328476394464313 
0.3328476394464313 0.3328476394464313 0.3250849536605945 0.3250849536605945 0.3250849536605945 0.2471964733612256 0.2471964733612256 0.2471964733612256 0.2433500985425793 
0.2433500985425793 0.2433500985425793 0.2209051799716016 0.2209051799716016 0.2209051799716016 -0.224302886813698 -0.224302886813698 -0.224302886813698 -0.2434700235549924 
-0.2434700235549924 -0.2434700235549924 -0.2640445465292251 -0.2640445465292251 -0.2640445465292251 -0.5331226484455911 -0.5331226484455911 -0.5331226484455911 -0.54614626952099 
-0.54614626952099 -0.54614626952099 -0.5697671666420232 -0.5697671666420232 -0.5697671666420232 0.4895750414937362 0.4895750414937362 0.4895750414937362 0.4973320838913017 
0.4973320838913017 0.4973320838913017 0.5309728740694343 0.5309728740694343 0.5309728740694343 0.1486694028407952 0.1486694028407952 0.1486694028407952 0.1662366604314554 
0.1662366604314554 0.1662366604314554 0.185686797783233 0.185686797783233 0.185686797783233 -0.503404576776237 -0.503404576776237 -0.503404576776237 -0.2144234939923449 
-0.2144234939923449 -0.2144234939923449 -0.1859960419113388 -0.1859960419113388 -0.1859960419113388 -0.1825613853393251 -0.1825613853393251 -0.1825613853393251 -0.06401866279388449 
-0.06401866279388449 -0.06401866279388449 -0.05374740742634185 -0.05374740742634185 -0.05374740742634185 -0.03233909768612438 -0.03233909768612438 -0.03233909768612438 -0.04956271542233941 
-0.04956271542233941 -0.04956271542233941 -0.02113276790487359 -0.02113276790487359 -0.02113276790487359 -0.004649081773008799 -0.004649081773008799 -0.004649081773008799 0.1045275364657347 
0.1045275364657347 0.1045275364657347 0.1234303685901684 0.1234303685901684 0.1234303685901684 0.1068640350256675 0.1068640350256675 0.1068640350256675 -0.7112150769411169 
-0.7112150769411169 -0.7112150769411169 -0.7233106983971305 -0.7233106983971305 -0.7233106983971305 -0.7363277784745161 -0.7363277784745161 -0.7363277784745161 0.1054723647784945 
0.1054723647784945 0.1054723647784945 0.1714008703916677 0.1714008703916677 0.1714008703916677 0.153602409476202 0.153602409476202 0.153602409476202 -0.8812844481373655 
-0.8812844481373655 -0.8812844481373655 -0.8774070702959893 -0.8774070702959893 -0.8774070702959893 -0.8724018359941876 -0.8724018359941876 -0.8724018359941876 0.60912287781865 
0.60912287781865 0.60912287781865 0.6085805990340296 0.6085805990340296 0.6085805990340296 0.6423258346172225 0.6423258346172225 0.6423258346172225 -0.1134323843366947 
-0.1134323843366947 -0.1134323843366947 -0.09883813591028984 -0.09883813591028984 -0.09883813591028984 -0.09110135276127718 -0.09110135276127718 -0.09110135276127718 0.08126608153828827 
0.08126608153828827 0.08126608153828827 0.1037068093800677 0.1037068093800677 0.1037068093800677 0.1189831231028208 0.1189831231028208 0.1189831231028208 0.6051730658404826 
0.6051730658404826 0.6051730658404826 0.5898180646122433 0.5898180646122433 0.5898180646122433 0.5755337762213684 0.5755337762213684 0.5755337762213684 0.1053418852486685 
0.1053418852486685 0.1053418852486685 0.07075817845038693 0.07075817845038693 0.07075817845038693 0.0626400936497349 0.0626400936497349 0.0626400936497349 -0.8781852862414158 
-0.8781852862414158 -0.8781852862414158 -0.8734679354328839 -0.8734679354328839 -0.8734679354328839 -0.8658070703589492 -0.8658070703589492 -0.8658070703589492 -0.3430106586412824 
-0.3430106586412824 -0.3430106586412824 -0.3223417400308174 -0.3223417400308174 -0.3223417400308174 -0.3074848562890077 -0.3074848562890077 -0.3074848562890077 -0.05638521797139587 
-0.05638521797139587 -0.05638521797139587 -0.07428675078633239 -0.07428675078633239 -0.07428675078633239 -0.08306106435135052 -0.08306106435135052 -0.08306106435135052 0.09249799924177111 
0.09249799924177111 0.09249799924177111 0.0984786524272156 0.0984786524272156 0.0984786524272156 0.1115036288754659 0.1115036288754659 0.1115036288754659 0.07827408001297903 
0.07827408001297903 0.07827408001297903 0.07639263402384991 0.07639263402384991 0.07639263402384991 0.0734461549483751 0.0734461549483751 0.0734461549483751 0.1325885571776413 
0.1325885571776413 0.1325885571776413 0.1790482202933437 0.1790482202933437 0.1790482202933437 0.1937470160996387 0.1937470160996387 0.1937470160996387 -0.109187364057537 
-0.109187364057537 -0.109187364057537 -0.11999220306731 -0.11999220306731 -0.11999220306731 -0.1146318196681897 -0.1146318196681897 -0.1146318196681897 -0.3493315323036592 
-0.3493315323036592 -0.3493315323036592 -0.3157420555497992 -0.3157420555497992 -0.3157420555497992 -0.3114800262309622 -0.3114800262309622 -0.3114800262309622 -0.06091085787432305 
-0.06091085787432305 -0.06091085787432305 -0.02592447670070271 -0.02592447670070271 -0.02592447670070271 -0.02054022120304008 -0.02054022120304008 -0.02054022120304008 -0.07310916173442619 