Title = Triangle100
FileType = Solution
Variables = q
Zone T = Triangle100
ZoneType = FETriangle
Nodes = 99072
Elements = 33024
DataPacking = Block
StrandID = 19
SolutionTime = 1.8
-0.153794357826486 -0.153794357826486 -0.153794357826486 -0.1549811445962627 -0.1549811445962627 -0.1549811445962627 -0.1412824301960984 -0.1412824301960984 -0.1412824301960984 0.06133811812236147 
0.06133811812236147 0.06133811812236147 0.09005851490807398 0.09005851490807398 0.09005851490807398 0.04568722702944662 0.04568722702944662 0.04568722702944662 0.04709176334338613 
0.04709176334338613 0.04709176334338613 -0.8000083917984112 -0.8000083917984112 -0.8000083917984112 -0.8000981738046782 -0.8000981738046782 -0.8000981738046782 0.4982456243134326 
0.4982456243134326 0.4982456243134326 0.5100541367658832 0.5100541367658832 0.5100541367658832 0.6498166072110474 0.6498166072110474 0.6498166072110474 0.6358492545917138 
0.6358492545917138 0.6358492545917138 -0.311393986151283 -0.311393986151283 -0.311393986151283 -0.3209847960339814 -0.3209847960339814 -0.3209847960339814 0.01164294106928207 
0.01164294106928207 0.01164294106928207 0.005786608827669526 0.005786608827669526 0.005786608827669526 0.3337483706858365 0.3337483706858365 0.3337483706858365 0.3283229811860909 
0.3283229811860909 0.3283229811860909 0.07546889740262819 0.07546889740262819 0.07546889740262819 0.06540084363761681 0.06540084363761681 0.06540084363761681 0.06235857981123358 
0.06235857981123358 0.06235857981123358 0.7063689276272542 0.7063689276272542 0.7063689276272542 0.7130752933661082 0.7130752933661082 0.7130752933661082 -0.781685964498519 
-0.781685964498519 -0.781685964498519 -0.7751905516977554 -0.7751905516977554 -0.7751905516977554 -0.8066016863699186 -0.8066016863699186 -0.8066016863699186 -0.8067065130539199 
-0.8067065130539199 -0.8067065130539199 0.4852644105906806 0.4852644105906806 0.4852644105906806 0.4937711647639479 0.4937711647639479 0.4937711647639479 0.0335289515505108 
0.0335289515505108 0.0335289515505108 0.03731593176353471 0.03731593176353471 0.03731593176353471 0.03905599323992064 0.03905599323992064 0.03905599323992064 0.6146429093131716 
0.6146429093131716 0.6146429093131716 0.6276122157903155 0.6276122157903155 0.6276122157903155 0.6361231726209712 0.6361231726209712 0.6361231726209712 -0.5103605618886277 
-0.5103605618886277 -0.5103605618886277 -0.5001442655822108 -0.5001442655822108 -0.5001442655822108 -0.5347453260522332 -0.5347453260522332 -0.5347453260522332 0.601106842796621 
0.601106842796621 0.601106842796621 0.6173492429707135 0.6173492429707135 0.6173492429707135 0.6262258152886142 0.6262258152886142 0.6262258152886142 -0.1059425107274534 
-0.1059425107274534 -0.1059425107274534 -0.1103429571223795 -0.1103429571223795 -0.1103429571223795 -0.130213909809983 -0.130213909809983 -0.130213909809983 0.3655837838173629 
0.3655837838173629 0.3655837838173629 0.3778972971807397 0.3778972971807397 0.3778972971807397 0.3835402194080238 0.3835402194080238 0.3835402194080238 0.7772068667459934 
0.7772068667459934 0.7772068667459934 0.7792216527202105 0.7792216527202105 0.7792216527202105 0.7889841449980018 0.7889841449980018 0.7889841449980018 0.2454418008302715 
0.2454418008302715 0.2454418008302715 0.2780727661463831 0.2780727661463831 0.2780727661463831 -0.7876624746121146 -0.7876624746121146 -0.7876624746121146 -0.7914274848752126 
-0.7914274848752126 -0.7914274848752126 -0.3041276482991973 -0.3041276482991973 -0.3041276482991973 -0.324819399894014 -0.324819399894014 -0.324819399894014 0.2335289540232564 
0.2335289540232564 0.2335289540232564 0.2302912762231369 0.2302912762231369 0.2302912762231369 -0.6246498417447257 -0.6246498417447257 -0.6246498417447257 -0.6140215587295546 
-0.6140215587295546 -0.6140215587295546 0.230938307670044 0.230938307670044 0.230938307670044 0.2533049219575284 0.2533049219575284 0.2533049219575284 -0.2199773069517617 
-0.2199773069517617 -0.2199773069517617 -0.2034567510037671 -0.2034567510037671 -0.2034567510037671 -0.5716184848748679 -0.5716184848748679 -0.5716184848748679 -0.5925124776104016 
-0.5925124776104016 -0.5925124776104016 0.194793312974058 0.194793312974058 0.194793312974058 0.181432333559348 0.181432333559348 0.181432333559348 -0.4445953880702716 
-0.4445953880702716 -0.4445953880702716 -0.4241730361906898 -0.4241730361906898 -0.4241730361906898 -0.2795115256885065 -0.2795115256885065 -0.2795115256885065 -0.2837293060559025 
-0.2837293060559025 -0.2837293060559025 0.3065913398010667 0.3065913398010667 0.3065913398010667 0.2750432639232245 0.2750432639232245 0.2750432639232245 -0.09395409342193792 
-0.09395409342193792 -0.09395409342193792 -0.1034699004076456 -0.1034699004076456 -0.1034699004076456 -0.5700573241830234 -0.5700573241830234 -0.5700573241830234 -0.5578401088581053 
-0.5578401088581053 -0.5578401088581053 -0.1689458349769914 -0.1689458349769914 -0.1689458349769914 -0.159631853694841 -0.159631853694841 -0.159631853694841 0.1810104971416507 
0.1810104971416507 0.1810104971416507 0.179487109801303 0.179487109801303 0.179487109801303 0.07100842225117954 0.07100842225117954 0.07100842225117954 0.06778068816430004 
0.06778068816430004 0.06778068816430004 -0.7601776318525941 -0.7601776318525941 -0.7601776318525941 -0.7623368879107082 -0.7623368879107082 -0.7623368879107082 0.1314220581306043 
0.1314220581306043 0.1314220581306043 0.1376719773478825 0.1376719773478825 0.1376719773478825 0.1032474999849251 0.1032474999849251 0.1032474999849251 0.1297363712556585 
0.1297363712556585 0.1297363712556585 0.7608291569400891 0.7608291569400891 0.7608291569400891 0.4437223906934431 0.4437223906934431 0.4437223906934431 0.4615946779905389 
0.4615946779905389 0.4615946779905389 0.3703041425011306 0.3703041425011306 0.3703041425011306 0.3528314164489061 0.3528314164489061 0.3528314164489061 0.005074288385653677 
0.005074288385653677 0.005074288385653677 -0.03153119109534137 -0.03153119109534137 -0.03153119109534137 0.2063116340366858 0.2063116340366858 0.2063116340366858 0.2045317992567652 
0.2045317992567652 0.2045317992567652 -0.374830400008196 -0.374830400008196 -0.374830400008196 -0.350023377683931 -0.350023377683931 -0.350023377683931 -0.5597405919339637 
-0.5597405919339637 -0.5597405919339637 -0.557026601005402 -0.557026601005402 -0.557026601005402 0.2769014673113345 0.2769014673113345 0.2769014673113345 0.2771661661524255 
0.2771661661524255 0.2771661661524255 -0.2215252840110663 -0.2215252840110663 -0.2215252840110663 -0.1968538653773817 -0.1968538653773817 -0.1968538653773817 0.1258308646322438 
0.1258308646322438 0.1258308646322438 0.1186057612517527 0.1186057612517527 0.1186057612517527 -0.1471252226865498 -0.1471252226865498 -0.1471252226865498 -0.1457052637066689 
-0.1457052637066689 -0.1457052637066689 0.5221185632129005 0.5221185632129005 0.5221185632129005 0.5132675764146805 0.5132675764146805 0.5132675764146805 -0.1612759788253678 
-0.1612759788253678 -0.1612759788253678 -0.1372898581026016 -0.1372898581026016 -0.1372898581026016 0.2754908017401254 0.2754908017401254 0.2754908017401254 0.2802008702494105 
0.2802008702494105 0.2802008702494105 -0.7980943615360512 -0.7980943615360512 -0.7980943615360512 -0.8008283345255831 -0.8008283345255831 -0.8008283345255831 -0.1760433687174974 
-0.1760433687174974 -0.1760433687174974 -0.1677017090856125 -0.1677017090856125 -0.1677017090856125 0.7958411205796405 0.7958411205796405 0.7958411205796405 0.7895367268799413 
0.7895367268799413 0.7895367268799413 -0.5099757432050834 -0.5099757432050834 -0.5099757432050834 -0.5140031389865166 -0.5140031389865166 -0.5140031389865166 -0.5183404595057377 
-0.5183404595057377 -0.5183404595057377 -0.6973364404404701 -0.6973364404404701 -0.6973364404404701 -0.711756521175921 -0.711756521175921 -0.711756521175921 -0.7060733497005658 
-0.7060733497005658 -0.7060733497005658 -0.5598991995902778 -0.5598991995902778 -0.5598991995902778 -0.5470158860967592 -0.5470158860967592 -0.5470158860967592 -0.5339734131598777 
-0.5339734131598777 -0.5339734131598777 -0.1354151372420928 -0.1354151372420928 -0.1354151372420928 -0.122245815559781 -0.122245815559781 -0.122245815559781 -0.1100144545063643 
-0.1100144545063643 -0.1100144545063643 0.1098162878484387 0.1098162878484387 0.1098162878484387 0.09407799243797757 0.09407799243797757 0.09407799243797757 0.08436760647443442 
0.08436760647443442 0.08436760647443442 0.5783141445485952 0.5783141445485952 0.5783141445485952 0.5731009915706038 0.5731009915706038 0.5731009915706038 -0.1253956295806933 
-0.1253956295806933 -0.1253956295806933 -0.1133559263719945 -0.1133559263719945 -0.1133559263719945 -0.1253185714766722 -0.1253185714766722 -0.1253185714766722 -0.3589001655084175 
-0.3589001655084175 -0.3589001655084175 -0.3734717042495133 -0.3734717042495133 -0.3734717042495133 -0.3667735387964961 -0.3667735387964961 -0.3667735387964961 -0.194783211812791 
-0.194783211812791 -0.194783211812791 -0.1788813881781189 -0.1788813881781189 -0.1788813881781189 -0.1672066543398874 -0.1672066543398874 -0.1672066543398874 0.2249864965594408 
0.2249864965594408 0.2249864965594408 0.2037868179985643 0.2037868179985643 0.2037868179985643 0.2017216997137265 0.2017216997137265 0.2017216997137265 -0.1631017521637366 
-0.1631017521637366 -0.1631017521637366 -0.1655302627935057 -0.1655302627935057 -0.1655302627935057 -0.1773082195378337 -0.1773082195378337 -0.1773082195378337 0.05291303414138707 
0.05291303414138707 0.05291303414138707 0.04790283398115315 0.04790283398115315 0.04790283398115315 0.06337218228900554 0.06337218228900554 0.06337218228900554 -0.2309238872455485 
-0.2309238872455485 -0.2309238872455485 -0.2305615235615314 -0.2305615235615314 -0.2305615235615314 -0.2331979045115219 -0.2331979045115219 -0.2331979045115219 -0.5214604443561595 
-0.5214604443561595 -0.5214604443561595 -0.5247096819207462 -0.5247096819207462 -0.5247096819207462 -0.8004991525079236 -0.8004991525079236 -0.8004991525079236 -0.8008008975680602 
-0.8008008975680602 -0.8008008975680602 -0.7998936385866214 -0.7998936385866214 -0.7998936385866214 0.2250168185834049 0.2250168185834049 0.2250168185834049 0.2523602545081574 
0.2523602545081574 0.2523602545081574 -0.4601884914520382 -0.4601884914520382 -0.4601884914520382 -0.4670807868525314 -0.4670807868525314 -0.4670807868525314 -0.01070877899870617 
-0.01070877899870617 -0.01070877899870617 0.006346157066578838 0.006346157066578838 0.006346157066578838 -0.4032960554064343 -0.4032960554064343 -0.4032960554064343 -0.4337898273876396 
-0.4337898273876396 -0.4337898273876396 0.6844309546750994 0.6844309546750994 0.6844309546750994 0.6942410776875361 0.6942410776875361 0.6942410776875361 0.1059917204940917 
0.1059917204940917 0.1059917204940917 0.100008300386678 0.100008300386678 0.100008300386678 -0.08221115978338628 -0.08221115978338628 -0.08221115978338628 -0.08768625954586508 
-0.08768625954586508 -0.08768625954586508 0.4460500655730129 0.4460500655730129 0.4460500655730129 0.4570362293119308 0.4570362293119308 0.4570362293119308 -0.5659081625725432 
-0.5659081625725432 -0.5659081625725432 -0.5716628521941258 -0.5716628521941258 -0.5716628521941258 0.1619004254935595 0.1619004254935595 0.1619004254935595 0.197098601140072 
0.197098601140072 0.197098601140072 -0.1104525972211231 -0.1104525972211231 -0.1104525972211231 -0.1373767554584915 -0.1373767554584915 -0.1373767554584915 -0.5225080201610167 
-0.5225080201610167 -0.5225080201610167 -0.5182433580173595 -0.5182433580173595 -0.5182433580173595 0.08870180389410354 0.08870180389410354 0.08870180389410354 0.1058027345392717 
0.1058027345392717 0.1058027345392717 -0.1701836717585183 -0.1701836717585183 -0.1701836717585183 -0.1939244956140601 -0.1939244956140601 -0.1939244956140601 0.17770759304266 
0.17770759304266 0.17770759304266 0.1924763476098099 0.1924763476098099 0.1924763476098099 -0.07805336248553441 -0.07805336248553441 -0.07805336248553441 -0.08101540348366114 
-0.08101540348366114 -0.08101540348366114 -0.08912350063234295 -0.08912350063234295 -0.08912350063234295 -0.08717634526067469 -0.08717634526067469 -0.08717634526067469 0.1889290270473269 
0.1889290270473269 0.1889290270473269 0.2087515527143195 0.2087515527143195 0.2087515527143195 0.3303114591543058 0.3303114591543058 0.3303114591543058 0.3104867269908986 
0.3104867269908986 0.3104867269908986 -0.5065419549953164 -0.5065419549953164 -0.5065419549953164 -0.5250726692513488 -0.5250726692513488 -0.5250726692513488 -0.4178899384239421 
-0.4178899384239421 -0.4178899384239421 -0.4301512805793364 -0.4301512805793364 -0.4301512805793364 -0.1028132920266384 -0.1028132920266384 -0.1028132920266384 -0.1234422205476712 
-0.1234422205476712 -0.1234422205476712 0.02728244177554128 0.02728244177554128 0.02728244177554128 0.03821325142006711 0.03821325142006711 0.03821325142006711 -0.3377418401132871 
-0.3377418401132871 -0.3377418401132871 -0.3290116422711197 -0.3290116422711197 -0.3290116422711197 -0.06703527579687937 -0.06703527579687937 -0.06703527579687937 -0.05878913126386609 
-0.05878913126386609 -0.05878913126386609 -0.6808494078458535 -0.6808494078458535 -0.6808494078458535 -0.6652659900108854 -0.6652659900108854 -0.6652659900108854 -0.3971030229829453 
-0.3971030229829453 -0.3971030229829453 -0.3889801447695773 -0.3889801447695773 -0.3889801447695773 0.1827537004221547 0.1827537004221547 0.1827537004221547 0.1852427948504731 
0.1852427948504731 0.1852427948504731 0.1643761440091523 0.1643761440091523 0.1643761440091523 0.1736569576367918 0.1736569576367918 0.1736569576367918 -0.540598833508012 
-0.540598833508012 -0.540598833508012 -0.5352984453522427 -0.5352984453522427 -0.5352984453522427 0.05832828429584704 0.05832828429584704 0.05832828429584704 0.08080400919387487 
0.08080400919387487 0.08080400919387487 -0.2697425512701603 -0.2697425512701603 -0.2697425512701603 -0.2874487918952695 -0.2874487918952695 -0.2874487918952695 0.1124141171969068 
0.1124141171969068 0.1124141171969068 0.1177897159508633 0.1177897159508633 0.1177897159508633 0.2465826315177401 0.2465826315177401 0.2465826315177401 0.2588131676165409 
0.2588131676165409 0.2588131676165409 -0.5372962739260525 -0.5372962739260525 -0.5372962739260525 0.01614695847012617 0.01614695847012617 0.01614695847012617 0.02348741409104559 
0.02348741409104559 0.02348741409104559 -0.1696444090260135 -0.1696444090260135 -0.1696444090260135 -0.2068985740750525 -0.2068985740750525 -0.2068985740750525 -0.2193293883475243 
-0.2193293883475243 -0.2193293883475243 -0.2054710189119115 -0.2054710189119115 -0.2054710189119115 -0.09349984922141377 -0.09349984922141377 -0.09349984922141377 -0.1235086517045042 
-0.1235086517045042 -0.1235086517045042 0.5130497743200412 0.5130497743200412 0.5130497743200412 0.5291323446563226 0.5291323446563226 0.5291323446563226 0.4833182565800013 
0.4833182565800013 0.4833182565800013 0.4983059234198471 0.4983059234198471 0.4983059234198471 -0.6051152066995003 -0.6051152066995003 -0.6051152066995003 -0.5896467984231394 
-0.5896467984231394 -0.5896467984231394 0.2264998449669886 0.2264998449669886 0.2264998449669886 0.2524951661367715 0.2524951661367715 0.2524951661367715 0.2000815854034322 
0.2000815854034322 0.2000815854034322 0.1929069020638489 0.1929069020638489 0.1929069020638489 0.2686229060555909 0.2686229060555909 0.2686229060555909 0.273188829739485 
0.273188829739485 0.273188829739485 0.5614183000691065 0.5614183000691065 0.5614183000691065 0.3874382671753892 0.3874382671753892 0.3874382671753892 0.4159689059365331 
0.4159689059365331 0.4159689059365331 0.7843492065400813 0.7843492065400813 0.7843492065400813 0.7893230021706353 0.7893230021706353 0.7893230021706353 -0.3970697858590074 
-0.3970697858590074 -0.3970697858590074 -0.3920787172865184 -0.3920787172865184 -0.3920787172865184 -0.7414837980531379 -0.7414837980531379 -0.7414837980531379 -0.7349371842048879 
-0.7349371842048879 -0.7349371842048879 -0.4177683828635196 -0.4177683828635196 -0.4177683828635196 -0.4161855479886151 -0.4161855479886151 -0.4161855479886151 0.7887980674399091 
0.7887980674399091 0.7887980674399091 -0.4063056478472873 -0.4063056478472873 -0.4063056478472873 -0.3858435171299784 -0.3858435171299784 -0.3858435171299784 0.2100717658075208 
0.2100717658075208 0.2100717658075208 0.2259382783367128 0.2259382783367128 0.2259382783367128 0.1539748224715667 0.1539748224715667 0.1539748224715667 0.1659472295006476 
0.1659472295006476 0.1659472295006476 -0.4701470802292049 -0.4701470802292049 -0.4701470802292049 -0.4568124380680904 -0.4568124380680904 -0.4568124380680904 -0.09534760993068539 
-0.09534760993068539 -0.09534760993068539 -0.1177766299838597 -0.1177766299838597 -0.1177766299838597 0.536136238903667 0.536136238903667 0.536136238903667 0.5486421777149362 
0.5486421777149362 0.5486421777149362 -0.2694922915716337 -0.2694922915716337 -0.2694922915716337 -0.2711359615541961 -0.2711359615541961 -0.2711359615541961 0.3788948694629607 
0.3788948694629607 0.3788948694629607 0.3870498689489629 0.3870498689489629 0.3870498689489629 0.4770114621983402 0.4770114621983402 0.4770114621983402 0.488271954311045 
0.488271954311045 0.488271954311045 0.05692319497080293 0.05692319497080293 0.05692319497080293 0.05010826036217576 0.05010826036217576 0.05010826036217576 0.1572534462517139 
0.1572534462517139 0.1572534462517139 0.1675690313778747 0.1675690313778747 0.1675690313778747 0.4411621289575682 0.4411621289575682 0.4411621289575682 0.4264682130857206 
0.4264682130857206 0.4264682130857206 -0.1754990268722859 -0.1754990268722859 -0.1754990268722859 -0.1733961688178109 -0.1733961688178109 -0.1733961688178109 0.1930636912976887 
0.1930636912976887 0.1930636912976887 0.1815284155436493 0.1815284155436493 0.1815284155436493 -0.7260440854319945 -0.7260440854319945 -0.7260440854319945 -0.2625455857416554 
-0.2625455857416554 -0.2625455857416554 -0.06993796608509209 -0.06993796608509209 -0.06993796608509209 -0.1437258786090935 -0.1437258786090935 -0.1437258786090935 -0.1273951943086912 
-0.1273951943086912 -0.1273951943086912 0.2684854589290622 0.2684854589290622 0.2684854589290622 0.2469024427470508 0.2469024427470508 0.2469024427470508 0.2550288660435591 
0.2550288660435591 0.2550288660435591 0.2895079448985633 0.2895079448985633 0.2895079448985633 0.334954340977443 0.334954340977443 0.334954340977443 0.3150719167660057 
0.3150719167660057 0.3150719167660057 0.1657075609738873 0.1657075609738873 0.1657075609738873 0.1516088837764366 0.1516088837764366 0.1516088837764366 0.7169068458058141 
0.7169068458058141 0.7169068458058141 0.692953502548936 0.692953502548936 0.692953502548936 0.3568423353212418 0.3568423353212418 0.3568423353212418 0.3886216151695699 
0.3886216151695699 0.3886216151695699 -0.7943772622008727 -0.7943772622008727 -0.7943772622008727 -0.7873017447819532 -0.7873017447819532 -0.7873017447819532 -0.5149804592136497 
-0.5149804592136497 -0.5149804592136497 -0.4971047533733921 -0.4971047533733921 -0.4971047533733921 -0.08740308196444321 -0.08740308196444321 -0.08740308196444321 -0.1023233161260202 
-0.1023233161260202 -0.1023233161260202 -0.6533681488310672 -0.6533681488310672 -0.6533681488310672 -0.6314107704533082 -0.6314107704533082 -0.6314107704533082 -0.1965511090005179 
-0.1965511090005179 -0.1965511090005179 -0.186458869728969 -0.186458869728969 -0.186458869728969 0.171966176635777 0.171966176635777 0.171966176635777 0.2100351473731953 
0.2100351473731953 0.2100351473731953 -0.1147087982267494 -0.1147087982267494 -0.1147087982267494 -0.1157943644446076 -0.1157943644446076 -0.1157943644446076 -0.2747180212575411 
-0.2747180212575411 -0.2747180212575411 -0.2470694543219125 -0.2470694543219125 -0.2470694543219125 -0.1520506069143537 -0.1520506069143537 -0.1520506069143537 -0.1297768539466626 
-0.1297768539466626 -0.1297768539466626 0.03251234301740737 0.03251234301740737 0.03251234301740737 0.7779414871430306 0.7779414871430306 0.7779414871430306 0.765132104067996 
0.765132104067996 0.765132104067996 0.3308948933353224 0.3308948933353224 0.3308948933353224 0.3655906873466277 0.3655906873466277 0.3655906873466277 0.1533280910591145 
0.1533280910591145 0.1533280910591145 0.184191398931126 0.184191398931126 0.184191398931126 -0.5667362817021518 -0.5667362817021518 -0.5667362817021518 -0.5460895171300684 
-0.5460895171300684 -0.5460895171300684 0.5822159449775506 0.5822159449775506 0.5822159449775506 0.5701866720330033 0.5701866720330033 0.5701866720330033 0.2387176550715709 
0.2387176550715709 0.2387176550715709 0.1975475277718111 0.1975475277718111 0.1975475277718111 -0.27450507734172 -0.27450507734172 -0.27450507734172 -0.260385205075931 
-0.260385205075931 -0.260385205075931 0.7766592724268992 0.7766592724268992 0.7766592724268992 0.7644939293082134 0.7644939293082134 0.7644939293082134 -0.16400787831616 
-0.16400787831616 -0.16400787831616 -0.1241496079899936 -0.1241496079899936 -0.1241496079899936 -0.009033788233422714 -0.009033788233422714 -0.009033788233422714 -0.004564586582186719 
-0.004564586582186719 -0.004564586582186719 -0.7848919778719221 -0.7848919778719221 -0.7848919778719221 -0.7770406365562468 -0.7770406365562468 -0.7770406365562468 0.06493675519439301 
0.06493675519439301 0.06493675519439301 0.07374470986597442 0.07374470986597442 0.07374470986597442 -0.2438558168753275 -0.2438558168753275 -0.2438558168753275 -0.2808231132109455 
-0.2808231132109455 -0.2808231132109455 0.4644195747964808 0.4644195747964808 0.4644195747964808 0.4938091438401367 0.4938091438401367 0.4938091438401367 0.7593348419187018 
0.7593348419187018 0.7593348419187018 0.7620038882300501 0.7620038882300501 0.7620038882300501 -0.2633973519550071 -0.2633973519550071 -0.2633973519550071 -0.2414454633264204 
-0.2414454633264204 -0.2414454633264204 -0.2379658208637048 -0.2379658208637048 -0.2379658208637048 -0.2546276369060627 -0.2546276369060627 -0.2546276369060627 0.7346795416491683 
0.7346795416491683 0.7346795416491683 0.7458748399540804 0.7458748399540804 0.7458748399540804 -0.06869848405156237 -0.06869848405156237 -0.06869848405156237 -0.07719784381004789 
-0.07719784381004789 -0.07719784381004789 -0.7775577082127884 -0.7775577082127884 -0.7775577082127884 -0.7757955432649932 -0.7757955432649932 -0.7757955432649932 -0.2411646019326543 
-0.2411646019326543 -0.2411646019326543 -0.2374341045746612 -0.2374341045746612 -0.2374341045746612 0.4242141603672534 0.4242141603672534 0.4242141603672534 0.4577360461630567 
0.4577360461630567 0.4577360461630567 -0.5414333397244775 -0.5414333397244775 -0.5414333397244775 -0.5397665055831655 -0.5397665055831655 -0.5397665055831655 -0.1319405823470346 
-0.1319405823470346 -0.1319405823470346 -0.1115411853843122 -0.1115411853843122 -0.1115411853843122 -0.03406663587979958 -0.03406663587979958 -0.03406663587979958 -0.07307260029394452 
-0.07307260029394452 -0.07307260029394452 -0.4185143042555282 -0.4185143042555282 -0.4185143042555282 -0.3967367816410135 -0.3967367816410135 -0.3967367816410135 -0.4822490145258711 
-0.4822490145258711 -0.4822490145258711 -0.4926537221154464 -0.4926537221154464 -0.4926537221154464 -0.4076891607679761 -0.4076891607679761 -0.4076891607679761 -0.3939940541050427 
-0.3939940541050427 -0.3939940541050427 -0.0938005533573702 -0.0938005533573702 -0.0938005533573702 -0.07080105089402458 -0.07080105089402458 -0.07080105089402458 0.05347825218725982 
0.05347825218725982 0.05347825218725982 0.0588157004464511 0.0588157004464511 0.0588157004464511 0.1388519180989744 0.1388519180989744 0.1388519180989744 0.1305882816361007 
0.1305882816361007 0.1305882816361007 -0.1879758206807315 -0.1879758206807315 -0.1879758206807315 -0.2150037668557769 -0.2150037668557769 -0.2150037668557769 -0.8028751947119132 
-0.8028751947119132 -0.8028751947119132 -0.8025870469503915 -0.8025870469503915 -0.8025870469503915 -0.07558484105775336 -0.07558484105775336 -0.07558484105775336 -0.1184092218854278 
-0.1184092218854278 -0.1184092218854278 -0.5592747822065491 -0.5592747822065491 -0.5592747822065491 -0.5841900200508208 -0.5841900200508208 -0.5841900200508208 -0.1640178687421121 
-0.1640178687421121 -0.1640178687421121 -0.215048325961842 -0.215048325961842 -0.215048325961842 0.3826644401568225 0.3826644401568225 0.3826644401568225 0.3638251954496495 
0.3638251954496495 0.3638251954496495 -0.7267631680707971 -0.7267631680707971 -0.7267631680707971 -0.7427605989362538 -0.7427605989362538 -0.7427605989362538 -0.3342676333970825 
-0.3342676333970825 -0.3342676333970825 -0.3331630985683429 -0.3331630985683429 -0.3331630985683429 0.5127753607313508 0.5127753607313508 0.5127753607313508 0.4878629461449089 
0.4878629461449089 0.4878629461449089 0.009122349271650025 0.009122349271650025 0.009122349271650025 -0.005791043289914068 -0.005791043289914068 -0.005791043289914068 0.6313372410563242 
0.6313372410563242 0.6313372410563242 0.6454366194611195 0.6454366194611195 0.6454366194611195 0.73750282373145 0.73750282373145 0.73750282373145 0.7232571452303973 
0.7232571452303973 0.7232571452303973 0.3657664040695812 0.3657664040695812 0.3657664040695812 0.3450142532102031 0.3450142532102031 0.3450142532102031 0.3318355657234307 
0.3318355657234307 0.3318355657234307 0.3205091061834368 0.3205091061834368 0.3205091061834368 -0.3531865764580334 -0.3531865764580334 -0.3531865764580334 -0.3028771045534643 
-0.3028771045534643 -0.3028771045534643 -0.2965276007654547 -0.2965276007654547 -0.2965276007654547 -0.1957701470942986 -0.1957701470942986 -0.1957701470942986 -0.1920831620339139 
-0.1920831620339139 -0.1920831620339139 -0.1713730612315975 -0.1713730612315975 -0.1713730612315975 0.1842373043425439 0.1842373043425439 0.1842373043425439 0.2010784746551562 
0.2010784746551562 0.2010784746551562 0.2207159759884146 0.2207159759884146 0.2207159759884146 0.4597740251089244 0.4597740251089244 0.4597740251089244 0.4717871515649859 
0.4717871515649859 0.4717871515649859 0.4935546549336163 0.4935546549336163 0.4935546549336163 -0.4363201175362916 -0.4363201175362916 -0.4363201175362916 -0.4425813770123108 
-0.4425813770123108 -0.4425813770123108 -0.4725918583060126 -0.4725918583060126 -0.4725918583060126 -0.1618814088848932 -0.1618814088848932 -0.1618814088848932 -0.1767356209535971 
-0.1767356209535971 -0.1767356209535971 -0.1937277398505311 -0.1937277398505311 -0.1937277398505311 0.4610659964719799 0.4610659964719799 0.4610659964719799 0.1700953967514928 
0.1700953967514928 0.1700953967514928 0.1448284814196769 0.1448284814196769 0.1448284814196769 0.1422444769742643 0.1422444769742643 0.1422444769742643 0.087029630871268 
0.087029630871268 0.087029630871268 0.07841730394314722 0.07841730394314722 0.07841730394314722 0.05894451278057834 0.05894451278057834 0.05894451278057834 0.02958823162255211 
0.02958823162255211 0.02958823162255211 0.005086706293626425 0.005086706293626425 0.005086706293626425 -0.01049675563156714 -0.01049675563156714 -0.01049675563156714 -0.1220853841729655 
-0.1220853841729655 -0.1220853841729655 -0.1379457895882073 -0.1379457895882073 -0.1379457895882073 -0.1230707083946511 -0.1230707083946511 -0.1230707083946511 0.6317084445965164 
0.6317084445965164 0.6317084445965164 0.6429041726530996 0.6429041726530996 0.6429041726530996 0.6542010824831828 0.6542010824831828 0.6542010824831828 -0.08995494528044536 
-0.08995494528044536 -0.08995494528044536 -0.1485623486709713 -0.1485623486709713 -0.1485623486709713 -0.1297081448444063 -0.1297081448444063 -0.1297081448444063 0.7835637452349602 
0.7835637452349602 0.7835637452349602 0.7804101520535306 0.7804101520535306 0.7804101520535306 0.7761550885616014 0.7761550885616014 0.7761550885616014 -0.5318376301639414 
-0.5318376301639414 -0.5318376301639414 -0.5309824055731248 -0.5309824055731248 -0.5309824055731248 -0.5621271417396364 -0.5621271417396364 -0.5621271417396364 0.08448586100707023 
0.08448586100707023 0.08448586100707023 0.07214625408670325 0.07214625408670325 0.07214625408670325 0.06600364476024395 0.06600364476024395 0.06600364476024395 -0.09907287711174391 
-0.09907287711174391 -0.09907287711174391 -0.1194345965839716 -0.1194345965839716 -0.1194345965839716 -0.1334645878435471 -0.1334645878435471 -0.1334645878435471 -0.5480808667104946 
-0.5480808667104946 -0.5480808667104946 -0.5347997683997676 -0.5347997683997676 -0.5347997683997676 -0.522560315241608 -0.522560315241608 -0.522560315241608 -0.08581929534403739 
-0.08581929534403739 -0.08581929534403739 -0.05471380239425959 -0.05471380239425959 -0.05471380239425959 -0.04818213785245421 -0.04818213785245421 -0.04818213785245421 0.7797195245507954 
0.7797195245507954 0.7797195245507954 0.7756196337316502 0.7756196337316502 0.7756196337316502 0.7686447055594351 0.7686447055594351 0.7686447055594351 0.3237640862197153 
0.3237640862197153 0.3237640862197153 0.3056705401682485 0.3056705401682485 0.3056705401682485 0.2922672224970337 0.2922672224970337 0.2922672224970337 0.05994980316685583 
0.05994980316685583 0.05994980316685583 0.07527634754772974 0.07527634754772974 0.07527634754772974 0.08237113711653023 0.08237113711653023 0.08237113711653023 -0.09948217826290562 
-0.09948217826290562 -0.09948217826290562 -0.1041110094349229 -0.1041110094349229 -0.1041110094349229 -0.1149089204300587 -0.1149089204300587 -0.1149089204300587 -0.03891819630552675 
-0.03891819630552675 -0.03891819630552675 -0.03710622598151714 -0.03710622598151714 -0.03710622598151714 -0.03432584856970139 -0.03432584856970139 -0.03432584856970139 -0.1233484462137647 
-0.1233484462137647 -0.1233484462137647 -0.1644476365160696 -0.1644476365160696 -0.1644476365160696 -0.1769626428228918 -0.1769626428228918 -0.1769626428228918 0.07901029447448735 
0.07901029447448735 0.07901029447448735 0.08965558081049882 0.08965558081049882 0.08965558081049882 0.08540404133583757 0.08540404133583757 0.08540404133583757 0.295619354188596 
0.295619354188596 0.295619354188596 0.2649019724902262 0.2649019724902262 0.2649019724902262 0.2616891559037692 0.2616891559037692 0.2616891559037692 0.02974918459906719 