Title = Triangle100
FileType = Solution
Variables = q
Zone T = Triangle100
ZoneType = FETriangle
Nodes = 99072
Elements = 33024
DataPacking = Block
StrandID = 10
SolutionTime = 0.9
-0.3458227192765522 -0.3458227192765522 -0.3458227192765522 -0.340214276962293 -0.340214276962293 -0.340214276962293 -0.3518906464001928 -0.3518906464001928 -0.3518906464001928 0.1529909689790492 
0.1529909689790492 0.1529909689790492 0.118182221021543 0.118182221021543 0.118182221021543 -0.21264489998984 -0.21264489998984 -0.21264489998984 -0.2078888770049074 
-0.2078888770049074 -0.2078888770049074 0.7006102290340328 0.7006102290340328 0.7006102290340328 0.6897545886108294 0.6897545886108294 0.6897545886108294 -0.8688950251043847 
-0.8688950251043847 -0.8688950251043847 -0.8730730274938493 -0.8730730274938493 -0.8730730274938493 -0.3348482700172933 -0.3348482700172933 -0.3348482700172933 -0.3266300814270364 
-0.3266300814270364 -0.3266300814270364 0.5944989825047426 0.5944989825047426 0.5944989825047426 0.5998177731183015 0.5998177731183015 0.5998177731183015 -0.2490775824174575 
-0.2490775824174575 -0.2490775824174575 -0.2419483521105571 -0.2419483521105571 -0.2419483521105571 -0.1221525764174702 -0.1221525764174702 -0.1221525764174702 -0.1128479633350521 
-0.1128479633350521 -0.1128479633350521 -0.08970690423920187 -0.08970690423920187 -0.08970690423920187 -0.1201606575122113 -0.1201606575122113 -0.1201606575122113 -0.09560059881792207 
-0.09560059881792207 -0.09560059881792207 -0.8824432549419956 -0.8824432549419956 -0.8824432549419956 -0.8777277249184834 -0.8777277249184834 -0.8777277249184834 0.6348015152441113 
0.6348015152441113 0.6348015152441113 0.6015013396245189 0.6015013396245189 0.6015013396245189 0.6958788233833892 0.6958788233833892 0.6958788233833892 0.6710335944130428 
0.6710335944130428 0.6710335944130428 -0.02639284252402383 -0.02639284252402383 -0.02639284252402383 -0.03423412048379294 -0.03423412048379294 -0.03423412048379294 0.002534434624387499 
0.002534434624387499 0.002534434624387499 0.01235041048742873 0.01235041048742873 0.01235041048742873 0.01902936945077493 0.01902936945077493 0.01902936945077493 -0.8856679960385853 
-0.8856679960385853 -0.8856679960385853 -0.8841637147325164 -0.8841637147325164 -0.8841637147325164 -0.8834280013017726 -0.8834280013017726 -0.8834280013017726 0.7620050612137935 
0.7620050612137935 0.7620050612137935 0.7622941683073546 0.7622941683073546 0.7622941683073546 0.76446760803744 0.76446760803744 0.76446760803744 -0.280390695118692 
-0.280390695118692 -0.280390695118692 -0.2988399377381183 -0.2988399377381183 -0.2988399377381183 -0.3118942555795695 -0.3118942555795695 -0.3118942555795695 -0.1085520074535019 
-0.1085520074535019 -0.1085520074535019 -0.1012087934541655 -0.1012087934541655 -0.1012087934541655 -0.07503167104020012 -0.07503167104020012 -0.07503167104020012 -0.5101468343740303 
-0.5101468343740303 -0.5101468343740303 -0.5132997408592492 -0.5132997408592492 -0.5132997408592492 -0.5106774768512335 -0.5106774768512335 -0.5106774768512335 -0.7384066603638001 
-0.7384066603638001 -0.7384066603638001 -0.7274158534559221 -0.7274158534559221 -0.7274158534559221 -0.7267896994687482 -0.7267896994687482 -0.7267896994687482 -0.7126292835007821 
-0.7126292835007821 -0.7126292835007821 -0.7371174802432897 -0.7371174802432897 -0.7371174802432897 0.7094179618428194 0.7094179618428194 0.7094179618428194 0.7209888066374759 
0.7209888066374759 0.7209888066374759 0.06519040258901158 0.06519040258901158 0.06519040258901158 0.07450779458188228 0.07450779458188228 0.07450779458188228 -0.423042827864816 
-0.423042827864816 -0.423042827864816 -0.4380507290538561 -0.4380507290538561 -0.4380507290538561 0.2230858814459699 0.2230858814459699 0.2230858814459699 0.2037382325220978 
0.2037382325220978 0.2037382325220978 -0.5320040643997569 -0.5320040643997569 -0.5320040643997569 -0.5600323575603681 -0.5600323575603681 -0.5600323575603681 0.6947019311644836 
0.6947019311644836 0.6947019311644836 0.6835443450519125 0.6835443450519125 0.6835443450519125 0.1902309120592585 0.1902309120592585 0.1902309120592585 0.2194396953672597 
0.2194396953672597 0.2194396953672597 0.3137856668651428 0.3137856668651428 0.3137856668651428 0.3270348487144902 0.3270348487144902 0.3270348487144902 0.4496455827123794 
0.4496455827123794 0.4496455827123794 0.4374369727171605 0.4374369727171605 0.4374369727171605 0.3254569537858846 0.3254569537858846 0.3254569537858846 0.3195314785510529 
0.3195314785510529 0.3195314785510529 0.1902013114950304 0.1902013114950304 0.1902013114950304 0.2228107256904563 0.2228107256904563 0.2228107256904563 -0.05535281791943018 
-0.05535281791943018 -0.05535281791943018 -0.05648667749123175 -0.05648667749123175 -0.05648667749123175 0.8894182662999693 0.8894182662999693 0.8894182662999693 0.8869832510032059 
0.8869832510032059 0.8869832510032059 -0.02387364565603428 -0.02387364565603428 -0.02387364565603428 -0.02437997896858425 -0.02437997896858425 -0.02437997896858425 -0.111926065551797 
-0.111926065551797 -0.111926065551797 -0.1189479617938114 -0.1189479617938114 -0.1189479617938114 -0.1055659291656716 -0.1055659291656716 -0.1055659291656716 -0.1133709095383988 
-0.1133709095383988 -0.1133709095383988 0.5794458025753363 0.5794458025753363 0.5794458025753363 0.5615756260423695 0.5615756260423695 0.5615756260423695 -0.4058176165067696 
-0.4058176165067696 -0.4058176165067696 -0.41373372868874 -0.41373372868874 -0.41373372868874 0.09830796202604276 0.09830796202604276 0.09830796202604276 0.06854868224319316 
0.06854868224319316 0.06854868224319316 -0.803015703006088 -0.803015703006088 -0.803015703006088 -0.8432625383258272 -0.8432625383258272 -0.8432625383258272 -0.8533742583313609 
-0.8533742583313609 -0.8533742583313609 -0.1603511841732216 -0.1603511841732216 -0.1603511841732216 -0.1326765623666735 -0.1326765623666735 -0.1326765623666735 0.2240653372022004 
0.2240653372022004 0.2240653372022004 0.27085197501711 0.27085197501711 0.27085197501711 -0.681482997029953 -0.681482997029953 -0.681482997029953 -0.6858800140103383 
-0.6858800140103383 -0.6858800140103383 0.6343751266088899 0.6343751266088899 0.6343751266088899 0.6191000161186966 0.6191000161186966 0.6191000161186966 0.7766541935969855 
0.7766541935969855 0.7766541935969855 0.7536681483110313 0.7536681483110313 0.7536681483110313 -0.7349746366078668 -0.7349746366078668 -0.7349746366078668 -0.7395797049039621 
-0.7395797049039621 -0.7395797049039621 -0.2837348747302865 -0.2837348747302865 -0.2837348747302865 -0.3060938618481565 -0.3060938618481565 -0.3060938618481565 -0.6067206529059999 
-0.6067206529059999 -0.6067206529059999 -0.5957815019715544 -0.5957815019715544 -0.5957815019715544 -0.03355646366889426 -0.03355646366889426 -0.03355646366889426 -0.02585684841926864 
-0.02585684841926864 -0.02585684841926864 -0.07571196826900087 -0.07571196826900087 -0.07571196826900087 -0.06993202670486365 -0.06993202670486365 -0.06993202670486365 -0.09759692036473375 
-0.09759692036473375 -0.09759692036473375 -0.1239112039890978 -0.1239112039890978 -0.1239112039890978 -0.2072090131187734 -0.2072090131187734 -0.2072090131187734 -0.2348522737041545 
-0.2348522737041545 -0.2348522737041545 0.6553897193876339 0.6553897193876339 0.6553897193876339 0.6510667371071513 0.6510667371071513 0.6510667371071513 -0.1169185035352753 
-0.1169185035352753 -0.1169185035352753 -0.1440923230345038 -0.1440923230345038 -0.1440923230345038 -0.7038873972698092 -0.7038873972698092 -0.7038873972698092 -0.6865524082280456 
-0.6865524082280456 -0.6865524082280456 0.2531474255559067 0.2531474255559067 0.2531474255559067 0.2679212068806309 0.2679212068806309 0.2679212068806309 0.2856064789549022 
0.2856064789549022 0.2856064789549022 0.8744560410534001 0.8744560410534001 0.8744560410534001 0.864982444220211 0.864982444220211 0.864982444220211 0.8552079535607839 
0.8552079535607839 0.8552079535607839 0.8378779009174765 0.8378779009174765 0.8378779009174765 0.834943766012002 0.834943766012002 0.834943766012002 0.8338626359770559 
0.8338626359770559 0.8338626359770559 -0.2698442414991659 -0.2698442414991659 -0.2698442414991659 -0.2774331992500686 -0.2774331992500686 -0.2774331992500686 -0.2813500307586455 
-0.2813500307586455 -0.2813500307586455 0.3093873286486998 0.3093873286486998 0.3093873286486998 0.3275199857674949 0.3275199857674949 0.3275199857674949 0.342972608826409 
0.342972608826409 0.342972608826409 -0.2532709475722448 -0.2532709475722448 -0.2532709475722448 -0.2559037474366142 -0.2559037474366142 -0.2559037474366142 -0.3613464196556636 
-0.3613464196556636 -0.3613464196556636 -0.3690118222557775 -0.3690118222557775 -0.3690118222557775 -0.351001550178473 -0.351001550178473 -0.351001550178473 0.6558285759713961 
0.6558285759713961 0.6558285759713961 0.6751662670202379 0.6751662670202379 0.6751662670202379 0.6756423051684408 0.6756423051684408 0.6756423051684408 0.6002898910947829 
0.6002898910947829 0.6002898910947829 0.58826534073587 0.58826534073587 0.58826534073587 0.5827848200435291 0.5827848200435291 0.5827848200435291 -0.1736778621371052 
-0.1736778621371052 -0.1736778621371052 -0.1505332246356942 -0.1505332246356942 -0.1505332246356942 -0.1355156894570358 -0.1355156894570358 -0.1355156894570358 -0.0217007175788488 
-0.0217007175788488 -0.0217007175788488 -0.01538142601381375 -0.01538142601381375 -0.01538142601381375 0.004449231777662721 0.004449231777662721 0.004449231777662721 -0.5451064860113586 
-0.5451064860113586 -0.5451064860113586 -0.5358040934346698 -0.5358040934346698 -0.5358040934346698 -0.5468689748793297 -0.5468689748793297 -0.5468689748793297 0.2405778434603314 
0.2405778434603314 0.2405778434603314 0.2290424542837418 0.2290424542837418 0.2290424542837418 0.2226880726832521 0.2226880726832521 0.2226880726832521 0.2990828586587105 
0.2990828586587105 0.2990828586587105 0.3145741509189746 0.3145741509189746 0.3145741509189746 0.7147693967841691 0.7147693967841691 0.7147693967841691 0.7236486842727528 
0.7236486842727528 0.7236486842727528 0.7331431318903887 0.7331431318903887 0.7331431318903887 0.2797373949916611 0.2797373949916611 0.2797373949916611 0.2504806423269372 
0.2504806423269372 0.2504806423269372 0.2526973087402712 0.2526973087402712 0.2526973087402712 0.2475008785048034 0.2475008785048034 0.2475008785048034 -0.1164989676562513 
-0.1164989676562513 -0.1164989676562513 -0.1414592883902855 -0.1414592883902855 -0.1414592883902855 0.6716994273307741 0.6716994273307741 0.6716994273307741 0.7086580264862762 
0.7086580264862762 0.7086580264862762 -0.8878326155135309 -0.8878326155135309 -0.8878326155135309 -0.8828190199636583 -0.8828190199636583 -0.8828190199636583 -0.3663976264355677 
-0.3663976264355677 -0.3663976264355677 -0.3538000598148761 -0.3538000598148761 -0.3538000598148761 0.01093346911204304 0.01093346911204304 0.01093346911204304 0.007725846787637278 
0.007725846787637278 0.007725846787637278 -0.8370597160057016 -0.8370597160057016 -0.8370597160057016 -0.8426501373255483 -0.8426501373255483 -0.8426501373255483 0.2494303334006662 
0.2494303334006662 0.2494303334006662 0.2607591969821916 0.2607591969821916 0.2607591969821916 0.01438310810520886 0.01438310810520886 0.01438310810520886 -0.02665175822735841 
-0.02665175822735841 -0.02665175822735841 -0.1128633139851483 -0.1128633139851483 -0.1128633139851483 -0.0798078749326552 -0.0798078749326552 -0.0798078749326552 0.1051208776198308 
0.1051208776198308 0.1051208776198308 0.09481229345813624 0.09481229345813624 0.09481229345813624 0.276388431673261 0.276388431673261 0.276388431673261 0.2640207318787386 
0.2640207318787386 0.2640207318787386 -0.1254335171570902 -0.1254335171570902 -0.1254335171570902 -0.1003690866373637 -0.1003690866373637 -0.1003690866373637 -0.6551894130055536 
-0.6551894130055536 -0.6551894130055536 -0.6689580361001274 -0.6689580361001274 -0.6689580361001274 0.3064961183504134 0.3064961183504134 0.3064961183504134 0.3158178243871827 
0.3158178243871827 0.3158178243871827 0.3301524336479159 0.3301524336479159 0.3301524336479159 0.3295924371443463 0.3295924371443463 0.3295924371443463 -0.4874947366029392 
-0.4874947366029392 -0.4874947366029392 -0.5129634178193139 -0.5129634178193139 -0.5129634178193139 -0.2318682316749232 -0.2318682316749232 -0.2318682316749232 -0.2164157932465292 
-0.2164157932465292 -0.2164157932465292 0.4126052267779384 0.4126052267779384 0.4126052267779384 0.4160001400589642 0.4160001400589642 0.4160001400589642 -0.05016486627887196 
-0.05016486627887196 -0.05016486627887196 -0.03254369382572415 -0.03254369382572415 -0.03254369382572415 -0.0219260627026418 -0.0219260627026418 -0.0219260627026418 -0.01669388679042131 
-0.01669388679042131 -0.01669388679042131 -0.5022341572112746 -0.5022341572112746 -0.5022341572112746 -0.5152358753909019 -0.5152358753909019 -0.5152358753909019 0.08451916746848782 
0.08451916746848782 0.08451916746848782 0.0790471053586887 0.0790471053586887 0.0790471053586887 0.2656876588240831 0.2656876588240831 0.2656876588240831 0.2482058167922418 
0.2482058167922418 0.2482058167922418 0.7698377573454988 0.7698377573454988 0.7698377573454988 0.7592891314023593 0.7592891314023593 0.7592891314023593 0.1410467986392296 
0.1410467986392296 0.1410467986392296 0.1373904226088843 0.1373904226088843 0.1373904226088843 -0.1492461246283207 -0.1492461246283207 -0.1492461246283207 -0.1422470016965461 
-0.1422470016965461 -0.1422470016965461 -0.03505730943136512 -0.03505730943136512 -0.03505730943136512 -0.03122298194616863 -0.03122298194616863 -0.03122298194616863 0.7605296554373467 
0.7605296554373467 0.7605296554373467 0.7441537925110575 0.7441537925110575 0.7441537925110575 0.03261277008375051 0.03261277008375051 0.03261277008375051 0.02169696254689967 
0.02169696254689967 0.02169696254689967 0.2167894157956763 0.2167894157956763 0.2167894157956763 0.2384012223595706 0.2384012223595706 0.2384012223595706 -0.3964197373368263 
-0.3964197373368263 -0.3964197373368263 -0.4073163610491922 -0.4073163610491922 -0.4073163610491922 -0.7092069224936248 -0.7092069224936248 -0.7092069224936248 -0.7196334811980818 
-0.7196334811980818 -0.7196334811980818 0.7578107609062814 0.7578107609062814 0.7578107609062814 0.07414386231352404 0.07414386231352404 0.07414386231352404 0.07751892321601118 
0.07751892321601118 0.07751892321601118 0.6608707918817009 0.6608707918817009 0.6608707918817009 0.6907175709286604 0.6907175709286604 0.6907175709286604 0.6982844517115609 
0.6982844517115609 0.6982844517115609 0.6881207742117965 0.6881207742117965 0.6881207742117965 -0.1199870871721111 -0.1199870871721111 -0.1199870871721111 -0.09418074562686136 
-0.09418074562686136 -0.09418074562686136 -0.09806675284905811 -0.09806675284905811 -0.09806675284905811 -0.1142608429304938 -0.1142608429304938 -0.1142608429304938 -0.1114613006124416 
-0.1114613006124416 -0.1114613006124416 -0.1254612523067946 -0.1254612523067946 -0.1254612523067946 0.1927411873063686 0.1927411873063686 0.1927411873063686 0.1689777735491548 
0.1689777735491548 0.1689777735491548 0.2630756303776892 0.2630756303776892 0.2630756303776892 0.2353374963688058 0.2353374963688058 0.2353374963688058 -0.4954121796266995 
-0.4954121796266995 -0.4954121796266995 -0.4880173946585978 -0.4880173946585978 -0.4880173946585978 0.1970633866487078 0.1970633866487078 0.1970633866487078 0.1850070904485012 
0.1850070904485012 0.1850070904485012 -0.2420906759805868 -0.2420906759805868 -0.2420906759805868 -0.481575643281084 -0.481575643281084 -0.481575643281084 -0.4940512840054344 
-0.4940512840054344 -0.4940512840054344 -0.7713503989920156 -0.7713503989920156 -0.7713503989920156 -0.771994644698085 -0.771994644698085 -0.771994644698085 0.4269329323650404 
0.4269329323650404 0.4269329323650404 0.4332883175750474 0.4332883175750474 0.4332883175750474 0.5838659499003018 0.5838659499003018 0.5838659499003018 0.5914484824645942 
0.5914484824645942 0.5914484824645942 -0.0583609598931385 -0.0583609598931385 -0.0583609598931385 -0.05739288722963909 -0.05739288722963909 -0.05739288722963909 -0.7441953930910949 
-0.7441953930910949 -0.7441953930910949 0.2725023894753962 0.2725023894753962 0.2725023894753962 0.2462239404641492 0.2462239404641492 0.2462239404641492 0.1761243875065246 
0.1761243875065246 0.1761243875065246 0.1685281062968046 0.1685281062968046 0.1685281062968046 0.3308886374310409 0.3308886374310409 0.3308886374310409 0.3128919833077032 
0.3128919833077032 0.3128919833077032 0.8199838033917819 0.8199838033917819 0.8199838033917819 0.8169718492083833 0.8169718492083833 0.8169718492083833 0.03936301358711228 
0.03936301358711228 0.03936301358711228 0.0389352644057001 0.0389352644057001 0.0389352644057001 -0.8805077207109201 -0.8805077207109201 -0.8805077207109201 -0.8836542815672219 
-0.8836542815672219 -0.8836542815672219 0.2448876379531442 0.2448876379531442 0.2448876379531442 0.2353365372323539 0.2353365372323539 0.2353365372323539 -0.5574481140791994 
-0.5574481140791994 -0.5574481140791994 -0.5552081023706333 -0.5552081023706333 -0.5552081023706333 -0.7617642611739919 -0.7617642611739919 -0.7617642611739919 -0.7573884498452657 
-0.7573884498452657 -0.7573884498452657 0.03133712023205855 0.03133712023205855 0.03133712023205855 0.0231764787665542 0.0231764787665542 0.0231764787665542 -0.3934599012996128 
-0.3934599012996128 -0.3934599012996128 -0.3936818762504526 -0.3936818762504526 -0.3936818762504526 0.02897538210868321 0.02897538210868321 0.02897538210868321 0.04591228949687054 
0.04591228949687054 0.04591228949687054 0.07284990218955126 0.07284990218955126 0.07284990218955126 0.06230389544613166 0.06230389544613166 0.06230389544613166 -0.1562791268589147 
-0.1562791268589147 -0.1562791268589147 -0.1515671175273799 -0.1515671175273799 -0.1515671175273799 0.4704957295118047 0.4704957295118047 0.4704957295118047 0.03218642503120647 
0.03218642503120647 0.03218642503120647 0.318260275597149 0.318260275597149 0.318260275597149 0.4925720393569376 0.4925720393569376 0.4925720393569376 0.4583263385087706 
0.4583263385087706 0.4583263385087706 -0.2540621746999066 -0.2540621746999066 -0.2540621746999066 -0.255700169289335 -0.255700169289335 -0.255700169289335 -0.7238691485986646 
-0.7238691485986646 -0.7238691485986646 -0.7500448384930031 -0.7500448384930031 -0.7500448384930031 -0.108194124126406 -0.108194124126406 -0.108194124126406 -0.08422247554823704 
-0.08422247554823704 -0.08422247554823704 -0.4605996984953582 -0.4605996984953582 -0.4605996984953582 -0.4366439656157631 -0.4366439656157631 -0.4366439656157631 -0.382917145021142 
-0.382917145021142 -0.382917145021142 -0.3364543554430803 -0.3364543554430803 -0.3364543554430803 0.08196094594418243 0.08196094594418243 0.08196094594418243 0.04528929669200175 
0.04528929669200175 0.04528929669200175 0.6094544686676897 0.6094544686676897 0.6094544686676897 0.574532983556643 0.574532983556643 0.574532983556643 0.8706664172159455 
0.8706664172159455 0.8706664172159455 0.8670629241686671 0.8670629241686671 0.8670629241686671 0.3215095491077591 0.3215095491077591 0.3215095491077591 0.3604247397818833 
0.3604247397818833 0.3604247397818833 0.2700265210684115 0.2700265210684115 0.2700265210684115 0.2385791183833655 0.2385791183833655 0.2385791183833655 0.2482188417657127 
0.2482188417657127 0.2482188417657127 0.2216340395383466 0.2216340395383466 0.2216340395383466 -0.5294703214278351 -0.5294703214278351 -0.5294703214278351 -0.5603191226809267 
-0.5603191226809267 -0.5603191226809267 0.2235043498738052 0.2235043498738052 0.2235043498738052 0.2373715142164493 0.2373715142164493 0.2373715142164493 -0.2094997802653273 
-0.2094997802653273 -0.2094997802653273 -0.2320210527676093 -0.2320210527676093 -0.2320210527676093 -0.1181147437318994 -0.1181147437318994 -0.1181147437318994 -0.1195993870955114 
-0.1195993870955114 -0.1195993870955114 0.03372362749618231 0.03372362749618231 0.03372362749618231 -0.608153066841899 -0.608153066841899 -0.608153066841899 -0.5848723283593424 
-0.5848723283593424 -0.5848723283593424 -0.09418154066228862 -0.09418154066228862 -0.09418154066228862 -0.1286503086813282 -0.1286503086813282 -0.1286503086813282 0.3518653638494552 
0.3518653638494552 0.3518653638494552 0.3185070067657 0.3185070067657 0.3185070067657 0.6338552402370285 0.6338552402370285 0.6338552402370285 0.6019249831565078 
0.6019249831565078 0.6019249831565078 -0.1559012506479495 -0.1559012506479495 -0.1559012506479495 -0.142514971169527 -0.142514971169527 -0.142514971169527 -0.259875431687274 
-0.259875431687274 -0.259875431687274 -0.2360934767800098 -0.2360934767800098 -0.2360934767800098 -0.01892180469533003 -0.01892180469533003 -0.01892180469533003 -0.04499033952650059 
-0.04499033952650059 -0.04499033952650059 -0.7869667755680482 -0.7869667755680482 -0.7869667755680482 -0.7827261371560861 -0.7827261371560861 -0.7827261371560861 0.6014718113464603 
0.6014718113464603 0.6014718113464603 0.5735386410097292 0.5735386410097292 0.5735386410097292 0.2456827557580562 0.2456827557580562 0.2456827557580562 0.2411384096189961 
0.2411384096189961 0.2411384096189961 0.5616283499708833 0.5616283499708833 0.5616283499708833 0.5533625482198676 0.5533625482198676 0.5533625482198676 -0.06706011796952983 
-0.06706011796952983 -0.06706011796952983 -0.0483340309649272 -0.0483340309649272 -0.0483340309649272 0.2846826618185354 0.2846826618185354 0.2846826618185354 0.2959292214499255 
0.2959292214499255 0.2959292214499255 -0.8386003880378072 -0.8386003880378072 -0.8386003880378072 -0.8505918734030622 -0.8505918734030622 -0.8505918734030622 -0.5453438379386737 
-0.5453438379386737 -0.5453438379386737 -0.5707021994828405 -0.5707021994828405 -0.5707021994828405 0.5807382305064835 0.5807382305064835 0.5807382305064835 0.5504318946033459 
0.5504318946033459 0.5504318946033459 0.6603027242338169 0.6603027242338169 0.6603027242338169 0.679729004236196 0.679729004236196 0.679729004236196 -0.5173886755799676 
-0.5173886755799676 -0.5173886755799676 -0.528435733270644 -0.528435733270644 -0.528435733270644 0.2620782937243993 0.2620782937243993 0.2620782937243993 0.2933426315224486 
0.2933426315224486 0.2933426315224486 0.5466496211762648 0.5466496211762648 0.5466496211762648 0.5316541253830542 0.5316541253830542 0.5316541253830542 -0.1006917104807138 
-0.1006917104807138 -0.1006917104807138 -0.08081726238512314 -0.08081726238512314 -0.08081726238512314 -0.8339195350843451 -0.8339195350843451 -0.8339195350843451 -0.8503496112719668 
-0.8503496112719668 -0.8503496112719668 0.7365466891162387 0.7365466891162387 0.7365466891162387 0.7537388334041971 0.7537388334041971 0.7537388334041971 -0.07343583380725011 
-0.07343583380725011 -0.07343583380725011 -0.06457525116964177 -0.06457525116964177 -0.06457525116964177 -0.45424229046224 -0.45424229046224 -0.45424229046224 -0.4193472021479106 
-0.4193472021479106 -0.4193472021479106 0.4045853989100553 0.4045853989100553 0.4045853989100553 0.4006511107205302 0.4006511107205302 0.4006511107205302 0.1272639536386634 
0.1272639536386634 0.1272639536386634 0.1577230939243498 0.1577230939243498 0.1577230939243498 0.1296436424099139 0.1296436424099139 0.1296436424099139 0.1228619089805642 
0.1228619089805642 0.1228619089805642 -0.2903509868557125 -0.2903509868557125 -0.2903509868557125 -0.2961591076369572 -0.2961591076369572 -0.2961591076369572 -0.2504153915908257 
-0.2504153915908257 -0.2504153915908257 -0.2460375058541721 -0.2460375058541721 -0.2460375058541721 0.2352333377496735 0.2352333377496735 0.2352333377496735 0.2595120565764304 
0.2595120565764304 0.2595120565764304 0.4037553666410863 0.4037553666410863 0.4037553666410863 0.4186960377135005 0.4186960377135005 0.4186960377135005 0.6504576235744979 
0.6504576235744979 0.6504576235744979 0.6755386508764363 0.6755386508764363 0.6755386508764363 0.3228944159594495 0.3228944159594495 0.3228944159594495 0.3696589772044271 
0.3696589772044271 0.3696589772044271 0.4610672244561969 0.4610672244561969 0.4610672244561969 0.4943736282525522 0.4943736282525522 0.4943736282525522 0.2448547438712807 
0.2448547438712807 0.2448547438712807 0.2767046120080287 0.2767046120080287 0.2767046120080287 -0.4655443620003369 -0.4655443620003369 -0.4655443620003369 -0.435207593044974 
-0.435207593044974 -0.435207593044974 0.6146240417049869 0.6146240417049869 0.6146240417049869 0.6373195896592451 0.6373195896592451 0.6373195896592451 0.3751759344385633 
0.3751759344385633 0.3751759344385633 0.4040079319664184 0.4040079319664184 0.4040079319664184 -0.8656031630996484 -0.8656031630996484 -0.8656031630996484 -0.8535054000803154 
-0.8535054000803154 -0.8535054000803154 0.01982556789270933 0.01982556789270933 0.01982556789270933 0.05168691714075677 0.05168691714075677 0.05168691714075677 -0.8964290497660445 
-0.8964290497660445 -0.8964290497660445 -0.8936825371219757 -0.8936825371219757 -0.8936825371219757 -0.4237137616409408 -0.4237137616409408 -0.4237137616409408 -0.3922474931566863 
-0.3922474931566863 -0.3922474931566863 -0.559043983613984 -0.559043983613984 -0.559043983613984 -0.5310050647169551 -0.5310050647169551 -0.5310050647169551 -0.5285480503083149 
-0.5285480503083149 -0.5285480503083149 -0.5300237875807081 -0.5300237875807081 -0.5300237875807081 0.1051927375673822 0.1051927375673822 0.1051927375673822 0.06368190263924078 
0.06368190263924078 0.06368190263924078 0.05842657006275104 0.05842657006275104 0.05842657006275104 0.1678459294546635 0.1678459294546635 0.1678459294546635 0.1757511912105429 
0.1757511912105429 0.1757511912105429 0.1403985017059581 0.1403985017059581 0.1403985017059581 0.2906703634526311 0.2906703634526311 0.2906703634526311 0.2677542765329248 
0.2677542765329248 0.2677542765329248 0.2544709471486475 0.2544709471486475 0.2544709471486475 -0.1980087875402388 -0.1980087875402388 -0.1980087875402388 -0.1983920318730177 
-0.1983920318730177 -0.1983920318730177 -0.2241470488693173 -0.2241470488693173 -0.2241470488693173 0.1995092031550141 0.1995092031550141 0.1995092031550141 0.2092932177112703 
0.2092932177112703 0.2092932177112703 0.2392714192336866 0.2392714192336866 0.2392714192336866 0.03641536914661758 0.03641536914661758 0.03641536914661758 0.03413792057945952 
0.03413792057945952 0.03413792057945952 0.02745840406520882 0.02745840406520882 0.02745840406520882 -0.840359089068937 -0.840359089068937 -0.840359089068937 -0.01136548938007386 
-0.01136548938007386 -0.01136548938007386 0.02544442557031467 0.02544442557031467 0.02544442557031467 0.03349447627654027 0.03349447627654027 0.03349447627654027 -0.3273920413137868 
-0.3273920413137868 -0.3273920413137868 -0.3074002701628377 -0.3074002701628377 -0.3074002701628377 -0.2712674777126701 -0.2712674777126701 -0.2712674777126701 0.2010967080181608 
0.2010967080181608 0.2010967080181608 0.2301095976720622 0.2301095976720622 0.2301095976720622 0.2482754446310802 0.2482754446310802 0.2482754446310802 -0.05795738543383383 
-0.05795738543383383 -0.05795738543383383 -0.06893041479062341 -0.06893041479062341 -0.06893041479062341 -0.08546942909392105 -0.08546942909392105 -0.08546942909392105 -0.241961329400313 
-0.241961329400313 -0.241961329400313 -0.2581075571551344 -0.2581075571551344 -0.2581075571551344 -0.2791524536234384 -0.2791524536234384 -0.2791524536234384 0.5502349803688049 
0.5502349803688049 0.5502349803688049 0.5929501310859038 0.5929501310859038 0.5929501310859038 0.559725747539043 0.559725747539043 0.559725747539043 -0.6011786868923772 
-0.6011786868923772 -0.6011786868923772 -0.5841819996725833 -0.5841819996725833 -0.5841819996725833 -0.5705584169751996 -0.5705584169751996 -0.5705584169751996 0.453595990365465 
0.453595990365465 0.453595990365465 0.4639895739128051 0.4639895739128051 0.4639895739128051 0.4997600497406323 0.4997600497406323 0.4997600497406323 0.1284311323438298 
0.1284311323438298 0.1284311323438298 0.1464347420859517 0.1464347420859517 0.1464347420859517 0.1560535296805851 0.1560535296805851 0.1560535296805851 -0.1375262900826682 
-0.1375262900826682 -0.1375262900826682 -0.1156319734378619 -0.1156319734378619 -0.1156319734378619 -0.09599494748443951 -0.09599494748443951 -0.09599494748443951 0.8789568076913652 
0.8789568076913652 0.8789568076913652 0.875749842496619 0.875749842496619 0.875749842496619 0.8717336580517997 0.8717336580517997 0.8717336580517997 -0.1410453295626191 
-0.1410453295626191 -0.1410453295626191 -0.1734377604679118 -0.1734377604679118 -0.1734377604679118 -0.1795725171844229 -0.1795725171844229 -0.1795725171844229 -0.8000243087838124 
-0.8000243087838124 -0.8000243087838124 -0.8084786340335353 -0.8084786340335353 -0.8084786340335353 -0.8140253794888666 -0.8140253794888666 -0.8140253794888666 -0.7491183578766136 
-0.7491183578766136 -0.7491183578766136 -0.7378947476344735 -0.7378947476344735 -0.7378947476344735 -0.7317350071143183 -0.7317350071143183 -0.7317350071143183 0.1080264137207497 
0.1080264137207497 0.1080264137207497 0.1005646903566178 0.1005646903566178 0.1005646903566178 0.09883909740262919 0.09883909740262919 0.09883909740262919 -0.0529655546733823 
-0.0529655546733823 -0.0529655546733823 -0.05443276740189301 -0.05443276740189301 -0.05443276740189301 -0.05233980162072683 -0.05233980162072683 -0.05233980162072683 -0.01967943085685265 
-0.01967943085685265 -0.01967943085685265 -0.01370543239205558 -0.01370543239205558 -0.01370543239205558 -0.001784108211953754 -0.001784108211953754 -0.001784108211953754 0.6144140784550778 
0.6144140784550778 0.6144140784550778 0.6469089511621692 0.6469089511621692 0.6469089511621692 0.6548198212319696 0.6548198212319696 0.6548198212319696 -0.120397830596762 
-0.120397830596762 -0.120397830596762 -0.1381648612964516 -0.1381648612964516 -0.1381648612964516 -0.142427922433936 -0.142427922433936 -0.142427922433936 -0.1315061165410495 
-0.1315061165410495 -0.1315061165410495 -0.09701150278511 -0.09701150278511 -0.09701150278511 -0.08747551756395 -0.08747551756395 -0.08747551756395 -0.01437092883800817 
-0.01437092883800817 -0.01437092883800817 0.0009605704745439256 0.0009605704745439256 0.0009605704745439256 -0.005779917383913216 -0.005779917383913216 -0.005779917383913216 -0.2566035486700533 