Title = Triangle100
FileType = Solution
Variables = q
Zone T = Triangle100
ZoneType = FETriangle
Nodes = 99072
Elements = 33024
DataPacking = Block
StrandID = 13
SolutionTime = 1.2
-0.1932380033881051 -0.1932380033881051 -0.1932380033881051 -0.1709699272265762 -0.1709699272265762 -0.1709699272265762 -0.1637315744566032 -0.1637315744566032 -0.1637315744566032 -0.2944557152668918 
-0.2944557152668918 -0.2944557152668918 -0.3062487231209022 -0.3062487231209022 -0.3062487231209022 -0.2259473933856068 -0.2259473933856068 -0.2259473933856068 -0.2518310734007113 
-0.2518310734007113 -0.2518310734007113 -0.2866728409341986 -0.2866728409341986 -0.2866728409341986 -0.2849632404877424 -0.2849632404877424 -0.2849632404877424 0.004202216446913525 
0.004202216446913525 0.004202216446913525 0.01381356153367423 0.01381356153367423 0.01381356153367423 -0.2145878772531464 -0.2145878772531464 -0.2145878772531464 -0.251190654883408 
-0.251190654883408 -0.251190654883408 -0.3426993100650784 -0.3426993100650784 -0.3426993100650784 -0.3594554085465458 -0.3594554085465458 -0.3594554085465458 0.3997701002249473 
0.3997701002249473 0.3997701002249473 0.4247302625611176 0.4247302625611176 0.4247302625611176 -0.4516268271703151 -0.4516268271703151 -0.4516268271703151 -0.4654052897914041 
-0.4654052897914041 -0.4654052897914041 -0.4979267307584548 -0.4979267307584548 -0.4979267307584548 -0.4770475584735863 -0.4770475584735863 -0.4770475584735863 -0.4397609645183077 
-0.4397609645183077 -0.4397609645183077 0.1603150741446891 0.1603150741446891 0.1603150741446891 0.151783459858314 0.151783459858314 0.151783459858314 -0.3520338801601027 
-0.3520338801601027 -0.3520338801601027 -0.3561439088572091 -0.3561439088572091 -0.3561439088572091 -0.2257790488116308 -0.2257790488116308 -0.2257790488116308 -0.1978906696855083 
-0.1978906696855083 -0.1978906696855083 0.1241445481024177 0.1241445481024177 0.1241445481024177 0.163948451921537 0.163948451921537 0.163948451921537 0.8283931766945778 
0.8283931766945778 0.8283931766945778 0.8244883527573231 0.8244883527573231 0.8244883527573231 0.8213960731566751 0.8213960731566751 0.8213960731566751 0.0613686224685772 
0.0613686224685772 0.0613686224685772 0.06614973140054899 0.06614973140054899 0.06614973140054899 0.07063094074859171 0.07063094074859171 0.07063094074859171 0.03399589701373891 
0.03399589701373891 0.03399589701373891 0.03557573925991628 0.03557573925991628 0.03557573925991628 0.03053092237677025 0.03053092237677025 0.03053092237677025 -0.2936777220516693 
-0.2936777220516693 -0.2936777220516693 -0.2698204267066781 -0.2698204267066781 -0.2698204267066781 -0.2610551055065502 -0.2610551055065502 -0.2610551055065502 0.3716003121360372 
0.3716003121360372 0.3716003121360372 0.3575950383040802 0.3575950383040802 0.3575950383040802 0.3450190876782915 0.3450190876782915 0.3450190876782915 0.6711595498705563 
0.6711595498705563 0.6711595498705563 0.6777251067616504 0.6777251067616504 0.6777251067616504 0.6858159273190192 0.6858159273190192 0.6858159273190192 0.3595726596519346 
0.3595726596519346 0.3595726596519346 0.3599231976855338 0.3599231976855338 0.3599231976855338 0.3298362851241387 0.3298362851241387 0.3298362851241387 -0.2275920673868508 
-0.2275920673868508 -0.2275920673868508 -0.1961082791098238 -0.1961082791098238 -0.1961082791098238 -0.06169261313249788 -0.06169261313249788 -0.06169261313249788 -0.08182897212995968 
-0.08182897212995968 -0.08182897212995968 0.6446085056720035 0.6446085056720035 0.6446085056720035 0.6180844270877194 0.6180844270877194 0.6180844270877194 0.01615643215095611 
0.01615643215095611 0.01615643215095611 0.0161032608707806 0.0161032608707806 0.0161032608707806 -0.233079864303646 -0.233079864303646 -0.233079864303646 -0.1884093165857512 
-0.1884093165857512 -0.1884093165857512 0.2105564314534199 0.2105564314534199 0.2105564314534199 0.2074678723597405 0.2074678723597405 0.2074678723597405 0.1927110372965282 
0.1927110372965282 0.1927110372965282 0.2061155301920806 0.2061155301920806 0.2061155301920806 -0.4705153551756721 -0.4705153551756721 -0.4705153551756721 -0.4554760429569169 
-0.4554760429569169 -0.4554760429569169 0.2663693945116936 0.2663693945116936 0.2663693945116936 0.2579079701253279 0.2579079701253279 0.2579079701253279 0.1305695528561073 
0.1305695528561073 0.1305695528561073 0.120887712019323 0.120887712019323 0.120887712019323 -0.8180576060848941 -0.8180576060848941 -0.8180576060848941 -0.8226009408283157 
-0.8226009408283157 -0.8226009408283157 0.2238061205732655 0.2238061205732655 0.2238061205732655 0.2042384178176018 0.2042384178176018 0.2042384178176018 0.3703364836246706 
0.3703364836246706 0.3703364836246706 0.375640624482275 0.375640624482275 0.375640624482275 -0.05461121618935293 -0.05461121618935293 -0.05461121618935293 -0.04558921982370066 
-0.04558921982370066 -0.04558921982370066 0.4521873801424719 0.4521873801424719 0.4521873801424719 0.4495769020916319 0.4495769020916319 0.4495769020916319 -0.06623746842155942 
-0.06623746842155942 -0.06623746842155942 -0.05430012635879936 -0.05430012635879936 -0.05430012635879936 -0.4971284201458238 -0.4971284201458238 -0.4971284201458238 -0.4863956702265632 
-0.4863956702265632 -0.4863956702265632 -0.3978458988380841 -0.3978458988380841 -0.3978458988380841 -0.373507787008522 -0.373507787008522 -0.373507787008522 0.1587204837375081 
0.1587204837375081 0.1587204837375081 0.1745998023732253 0.1745998023732253 0.1745998023732253 -0.2903083100531069 -0.2903083100531069 -0.2903083100531069 -0.3091592105392284 
-0.3091592105392284 -0.3091592105392284 0.09329995636469995 0.09329995636469995 0.09329995636469995 -0.02879044705669483 -0.02879044705669483 -0.02879044705669483 -0.02241539743472286 
-0.02241539743472286 -0.02241539743472286 -0.4396084055542767 -0.4396084055542767 -0.4396084055542767 -0.4742453204423807 -0.4742453204423807 -0.4742453204423807 -0.2767241125903788 
-0.2767241125903788 -0.2767241125903788 -0.2626345638580163 -0.2626345638580163 -0.2626345638580163 -0.2646759873519489 -0.2646759873519489 -0.2646759873519489 -0.2550453424296958 
-0.2550453424296958 -0.2550453424296958 -0.4144025905880693 -0.4144025905880693 -0.4144025905880693 -0.3911519621550675 -0.3911519621550675 -0.3911519621550675 0.0242778513762327 
0.0242778513762327 0.0242778513762327 0.03138504749015103 0.03138504749015103 0.03138504749015103 -0.1965584509841677 -0.1965584509841677 -0.1965584509841677 -0.1957539577645999 
-0.1957539577645999 -0.1957539577645999 -0.2485915878132286 -0.2485915878132286 -0.2485915878132286 -0.2164165297470833 -0.2164165297470833 -0.2164165297470833 -0.1807967134972998 
-0.1807967134972998 -0.1807967134972998 -0.1698299110336987 -0.1698299110336987 -0.1698299110336987 0.2600014084760358 0.2600014084760358 0.2600014084760358 0.228785156399353 
0.228785156399353 0.228785156399353 0.1004041213175925 0.1004041213175925 0.1004041213175925 0.0520493291665286 0.0520493291665286 0.0520493291665286 0.3278688905873635 
0.3278688905873635 0.3278688905873635 0.2954656215942278 0.2954656215942278 0.2954656215942278 0.8547806851460239 0.8547806851460239 0.8547806851460239 0.8519827448984416 
0.8519827448984416 0.8519827448984416 -0.2837089085878082 -0.2837089085878082 -0.2837089085878082 -0.2602169344198345 -0.2602169344198345 -0.2602169344198345 0.2901618046012515 
0.2901618046012515 0.2901618046012515 0.2509725944108928 0.2509725944108928 0.2509725944108928 0.3065493119967549 0.3065493119967549 0.3065493119967549 0.337272832940673 
0.337272832940673 0.337272832940673 -0.6953094279911278 -0.6953094279911278 -0.6953094279911278 -0.6997779222372756 -0.6997779222372756 -0.6997779222372756 -0.7048454242995122 
-0.7048454242995122 -0.7048454242995122 -0.2498491483916715 -0.2498491483916715 -0.2498491483916715 -0.2682639497000687 -0.2682639497000687 -0.2682639497000687 -0.2973572797254141 
-0.2973572797254141 -0.2973572797254141 0.005536514466463631 0.005536514466463631 0.005536514466463631 0.01104215820226374 0.01104215820226374 0.01104215820226374 0.01626413385221823 
0.01626413385221823 0.01626413385221823 0.06598294919465403 0.06598294919465403 0.06598294919465403 0.06914445737162764 0.06914445737162764 0.06914445737162764 0.07701324717307008 
0.07701324717307008 0.07701324717307008 0.5989099245980033 0.5989099245980033 0.5989099245980033 0.5890313307432609 0.5890313307432609 0.5890313307432609 0.5767663666186691 
0.5767663666186691 0.5767663666186691 -0.3204902564647732 -0.3204902564647732 -0.3204902564647732 -0.3409073736147564 -0.3409073736147564 -0.3409073736147564 -0.1370504628167457 
-0.1370504628167457 -0.1370504628167457 -0.1251221663208082 -0.1251221663208082 -0.1251221663208082 -0.1040111877708307 -0.1040111877708307 -0.1040111877708307 -0.2965952377224372 
-0.2965952377224372 -0.2965952377224372 -0.28118626677896 -0.28118626677896 -0.28118626677896 -0.256352208819163 -0.256352208819163 -0.256352208819163 0.07761493303860148 
0.07761493303860148 0.07761493303860148 0.07736894452637953 0.07736894452637953 0.07736894452637953 0.08128658250839196 0.08128658250839196 0.08128658250839196 -0.08442836946476791 
-0.08442836946476791 -0.08442836946476791 -0.06820941767022334 -0.06820941767022334 -0.06820941767022334 -0.08152067245157744 -0.08152067245157744 -0.08152067245157744 0.2918592796097049 
0.2918592796097049 0.2918592796097049 0.2807525432721038 0.2807525432721038 0.2807525432721038 0.2662600950130033 0.2662600950130033 0.2662600950130033 -0.1952578114050382 
-0.1952578114050382 -0.1952578114050382 -0.180515887750385 -0.180515887750385 -0.180515887750385 -0.1721499894685047 -0.1721499894685047 -0.1721499894685047 -0.8508746829950928 
-0.8508746829950928 -0.8508746829950928 -0.8544315828384749 -0.8544315828384749 -0.8544315828384749 -0.8560151175518114 -0.8560151175518114 -0.8560151175518114 -0.7083915033340871 
-0.7083915033340871 -0.7083915033340871 -0.7121344570694081 -0.7121344570694081 -0.7121344570694081 -0.1168310750625128 -0.1168310750625128 -0.1168310750625128 -0.1262906090964746 
-0.1262906090964746 -0.1262906090964746 -0.1287634527039163 -0.1287634527039163 -0.1287634527039163 0.240765186372587 0.240765186372587 0.240765186372587 0.2400360240007282 
0.2400360240007282 0.2400360240007282 -0.7576091828648251 -0.7576091828648251 -0.7576091828648251 -0.7481548721702894 -0.7481548721702894 -0.7481548721702894 -0.1144017866833857 
-0.1144017866833857 -0.1144017866833857 -0.1462931533708973 -0.1462931533708973 -0.1462931533708973 -0.3795865497532368 -0.3795865497532368 -0.3795865497532368 -0.3505819974898881 
-0.3505819974898881 -0.3505819974898881 0.1338039565742251 0.1338039565742251 0.1338039565742251 0.1290499966129614 0.1290499966129614 0.1290499966129614 -0.1109423802079352 
-0.1109423802079352 -0.1109423802079352 -0.1367201088836752 -0.1367201088836752 -0.1367201088836752 0.7814855727680997 0.7814855727680997 0.7814855727680997 0.7818403191094958 
0.7818403191094958 0.7818403191094958 0.001979518351597905 0.001979518351597905 0.001979518351597905 0.01333769709599832 0.01333769709599832 0.01333769709599832 0.3514375208818588 
0.3514375208818588 0.3514375208818588 0.3509080407967923 0.3509080407967923 0.3509080407967923 -0.2611576804815253 -0.2611576804815253 -0.2611576804815253 -0.2753339809518212 
-0.2753339809518212 -0.2753339809518212 0.4624211173714136 0.4624211173714136 0.4624211173714136 0.4293961833413166 0.4293961833413166 0.4293961833413166 -0.446924061515575 
-0.446924061515575 -0.446924061515575 -0.433207687394941 -0.433207687394941 -0.433207687394941 -0.1068210152807059 -0.1068210152807059 -0.1068210152807059 -0.110983588939037 
-0.110983588939037 -0.110983588939037 0.2798251705707515 0.2798251705707515 0.2798251705707515 0.3071133713016797 0.3071133713016797 0.3071133713016797 -0.2939380673686708 
-0.2939380673686708 -0.2939380673686708 -0.2787445809119916 -0.2787445809119916 -0.2787445809119916 0.3895476581839054 0.3895476581839054 0.3895476581839054 0.3771915871630641 
0.3771915871630641 0.3771915871630641 0.3115903494672377 0.3115903494672377 0.3115903494672377 0.339866311405159 0.339866311405159 0.339866311405159 0.1285338458878384 
0.1285338458878384 0.1285338458878384 0.1411851725226718 0.1411851725226718 0.1411851725226718 0.8389444204336691 0.8389444204336691 0.8389444204336691 0.845296010469999 
0.845296010469999 0.845296010469999 0.2259381660128658 0.2259381660128658 0.2259381660128658 0.2386143619436759 0.2386143619436759 0.2386143619436759 -0.3998665455981083 
-0.3998665455981083 -0.3998665455981083 -0.4093375650006347 -0.4093375650006347 -0.4093375650006347 0.7905087336932489 0.7905087336932489 0.7905087336932489 0.779191245594881 
0.779191245594881 0.779191245594881 -0.4371433909425836 -0.4371433909425836 -0.4371433909425836 -0.4251927918006551 -0.4251927918006551 -0.4251927918006551 0.6198607921440108 
0.6198607921440108 0.6198607921440108 0.62616230712779 0.62616230712779 0.62616230712779 0.2574985041170036 0.2574985041170036 0.2574985041170036 0.2252223398221623 
0.2252223398221623 0.2252223398221623 0.006149239597068196 0.006149239597068196 0.006149239597068196 0.01748352596791261 0.01748352596791261 0.01748352596791261 0.5552133439790848 
0.5552133439790848 0.5552133439790848 0.5532812028323439 0.5532812028323439 0.5532812028323439 -0.03093760091440872 -0.03093760091440872 -0.03093760091440872 -0.04288374317317153 
-0.04288374317317153 -0.04288374317317153 -0.6140793804461158 -0.6140793804461158 -0.6140793804461158 -0.6024990543331933 -0.6024990543331933 -0.6024990543331933 0.03097746170832071 
0.03097746170832071 0.03097746170832071 0.03562444175559187 0.03562444175559187 0.03562444175559187 -0.8122445125432076 -0.8122445125432076 -0.8122445125432076 -0.8003945115057765 
-0.8003945115057765 -0.8003945115057765 -0.8545611015087948 -0.8545611015087948 -0.8545611015087948 -0.8494382192456281 -0.8494382192456281 -0.8494382192456281 -0.2981845081194207 
-0.2981845081194207 -0.2981845081194207 -0.2829321857488263 -0.2829321857488263 -0.2829321857488263 -0.2284102682793578 -0.2284102682793578 -0.2284102682793578 -0.2154690864694885 
-0.2154690864694885 -0.2154690864694885 0.0319232787444238 0.0319232787444238 0.0319232787444238 -0.2780510281304289 -0.2780510281304289 -0.2780510281304289 -0.2859549834895012 
-0.2859549834895012 -0.2859549834895012 0.2687815186044559 0.2687815186044559 0.2687815186044559 0.2479609619166532 0.2479609619166532 0.2479609619166532 0.2086954709641361 
0.2086954709641361 0.2086954709641361 0.2192484922892559 0.2192484922892559 0.2192484922892559 0.664423998039211 0.664423998039211 0.664423998039211 0.6506210652814581 
0.6506210652814581 0.6506210652814581 -0.1029530969397526 -0.1029530969397526 -0.1029530969397526 -0.08591029729920613 -0.08591029729920613 -0.08591029729920613 -0.2799757802653227 
-0.2799757802653227 -0.2799757802653227 -0.2700243412274004 -0.2700243412274004 -0.2700243412274004 -0.09475343877173376 -0.09475343877173376 -0.09475343877173376 -0.1106751005606602 
-0.1106751005606602 -0.1106751005606602 0.464372101704722 0.464372101704722 0.464372101704722 0.4591280260090836 0.4591280260090836 0.4591280260090836 0.1933104416396517 
0.1933104416396517 0.1933104416396517 0.1776407080378996 0.1776407080378996 0.1776407080378996 0.5252185422815306 0.5252185422815306 0.5252185422815306 0.5423487274257583 
0.5423487274257583 0.5423487274257583 -0.3531548245382883 -0.3531548245382883 -0.3531548245382883 0.7235261585139156 0.7235261585139156 0.7235261585139156 0.72294068556425 
0.72294068556425 0.72294068556425 0.307831469077868 0.307831469077868 0.307831469077868 0.2862577929243574 0.2862577929243574 0.2862577929243574 0.1029419012348428 
0.1029419012348428 0.1029419012348428 0.09434049213964436 0.09434049213964436 0.09434049213964436 -0.4575407230659082 -0.4575407230659082 -0.4575407230659082 -0.4754930449855914 
-0.4754930449855914 -0.4754930449855914 -0.3258933418376119 -0.3258933418376119 -0.3258933418376119 -0.3537026205549224 -0.3537026205549224 -0.3537026205549224 0.3184252695018859 
0.3184252695018859 0.3184252695018859 -0.8059549775360765 -0.8059549775360765 -0.8059549775360765 -0.8139214601409588 -0.8139214601409588 -0.8139214601409588 -0.1486600102147407 
-0.1486600102147407 -0.1486600102147407 -0.1400526019495238 -0.1400526019495238 -0.1400526019495238 0.4898823343193298 0.4898823343193298 0.4898823343193298 0.5064268970084405 
0.5064268970084405 0.5064268970084405 -0.1192154317705593 -0.1192154317705593 -0.1192154317705593 -0.09328678880658249 -0.09328678880658249 -0.09328678880658249 0.7412499890977796 
0.7412499890977796 0.7412499890977796 0.7207636168295524 0.7207636168295524 0.7207636168295524 0.02650396237500223 0.02650396237500223 0.02650396237500223 0.03580940862469761 
0.03580940862469761 0.03580940862469761 0.08991226155813414 0.08991226155813414 0.08991226155813414 0.1018898870421564 0.1018898870421564 0.1018898870421564 -0.0405825462179374 
-0.0405825462179374 -0.0405825462179374 -0.04398708370020169 -0.04398708370020169 -0.04398708370020169 0.3036543021001399 0.3036543021001399 0.3036543021001399 0.3382831986972816 
0.3382831986972816 0.3382831986972816 -0.3519213880093587 -0.3519213880093587 -0.3519213880093587 -0.3465767593134895 -0.3465767593134895 -0.3465767593134895 0.05123315484902183 
0.05123315484902183 0.05123315484902183 0.04810167862088231 0.04810167862088231 0.04810167862088231 0.1618225588581242 0.1618225588581242 0.1618225588581242 0.1528888808505232 
0.1528888808505232 0.1528888808505232 0.1090321547086958 0.1090321547086958 0.1090321547086958 0.1211151866361468 0.1211151866361468 0.1211151866361468 -0.04102501268332058 
-0.04102501268332058 -0.04102501268332058 -0.02324673686554184 -0.02324673686554184 -0.02324673686554184 0.1112723832668555 0.1112723832668555 0.1112723832668555 0.6597067461875045 
0.6597067461875045 0.6597067461875045 -0.3791287675451009 -0.3791287675451009 -0.3791287675451009 0.3071891033442142 0.3071891033442142 0.3071891033442142 0.3288663686734558 
0.3288663686734558 0.3288663686734558 0.8484401100637222 0.8484401100637222 0.8484401100637222 0.8473530335064565 0.8473530335064565 0.8473530335064565 -0.2156056176787164 
-0.2156056176787164 -0.2156056176787164 -0.1837927015861666 -0.1837927015861666 -0.1837927015861666 -0.5042673830166754 -0.5042673830166754 -0.5042673830166754 -0.5320711880479199 
-0.5320711880479199 -0.5320711880479199 0.06088830091445536 0.06088830091445536 0.06088830091445536 0.109337108728807 0.109337108728807 0.109337108728807 0.08903289705262521 
0.08903289705262521 0.08903289705262521 0.08649211532623288 0.08649211532623288 0.08649211532623288 0.5499900552835901 0.5499900552835901 0.5499900552835901 0.5405878265462285 
0.5405878265462285 0.5405878265462285 -0.2562701081171773 -0.2562701081171773 -0.2562701081171773 -0.2455518782253674 -0.2455518782253674 -0.2455518782253674 0.00151657609958559 
0.00151657609958559 0.00151657609958559 0.00825393890596199 0.00825393890596199 0.00825393890596199 0.2283873843328575 0.2283873843328575 0.2283873843328575 0.2406536243607741 
0.2406536243607741 0.2406536243607741 -0.2305627988495684 -0.2305627988495684 -0.2305627988495684 -0.2748982250462554 -0.2748982250462554 -0.2748982250462554 -0.01761863307911784 
-0.01761863307911784 -0.01761863307911784 -0.01840501508609876 -0.01840501508609876 -0.01840501508609876 -0.02631064241035744 -0.02631064241035744 -0.02631064241035744 -0.03415691347971417 
-0.03415691347971417 -0.03415691347971417 -0.8168414334589535 -0.8168414334589535 -0.8168414334589535 -0.8033432813941391 -0.8033432813941391 -0.8033432813941391 -0.1188217144879964 
-0.1188217144879964 -0.1188217144879964 -0.09442334841070832 -0.09442334841070832 -0.09442334841070832 0.2994993603723168 0.2994993603723168 0.2994993603723168 0.3026628585766164 
0.3026628585766164 0.3026628585766164 0.8119762502895399 0.8119762502895399 0.8119762502895399 0.006213379558227152 0.006213379558227152 0.006213379558227152 -0.03128640148179224 
-0.03128640148179224 -0.03128640148179224 -0.5500116894756693 -0.5500116894756693 -0.5500116894756693 -0.5237403551447055 -0.5237403551447055 -0.5237403551447055 0.412439061412574 
0.412439061412574 0.412439061412574 0.4184863418009215 0.4184863418009215 0.4184863418009215 -0.6156282701211245 -0.6156282701211245 -0.6156282701211245 -0.6452717903870033 
-0.6452717903870033 -0.6452717903870033 0.1271254967996163 0.1271254967996163 0.1271254967996163 0.07678131349266443 0.07678131349266443 0.07678131349266443 0.8446619559432174 
0.8446619559432174 0.8446619559432174 0.8472639861779421 0.8472639861779421 0.8472639861779421 0.4007556222717987 0.4007556222717987 0.4007556222717987 0.356765420346777 
0.356765420346777 0.356765420346777 0.1072395254452204 0.1072395254452204 0.1072395254452204 0.07653621725314208 0.07653621725314208 0.07653621725314208 0.1091987990511442 
0.1091987990511442 0.1091987990511442 0.1174277221688988 0.1174277221688988 0.1174277221688988 -0.3366455011428292 -0.3366455011428292 -0.3366455011428292 -0.375524272461741 
-0.375524272461741 -0.375524272461741 -0.08986206277103877 -0.08986206277103877 -0.08986206277103877 -0.04163769782159206 -0.04163769782159206 -0.04163769782159206 -0.4325664372081431 
-0.4325664372081431 -0.4325664372081431 -0.4442686533044337 -0.4442686533044337 -0.4442686533044337 -0.8327136584498539 -0.8327136584498539 -0.8327136584498539 -0.8341826717124445 
-0.8341826717124445 -0.8341826717124445 -0.04421591580520421 -0.04421591580520421 -0.04421591580520421 -0.025587712197419 -0.025587712197419 -0.025587712197419 -0.03948369581517824 
-0.03948369581517824 -0.03948369581517824 -0.03858477704498301 -0.03858477704498301 -0.03858477704498301 -0.1630586333469085 -0.1630586333469085 -0.1630586333469085 -0.1764194669312098 
-0.1764194669312098 -0.1764194669312098 0.1056168093520216 0.1056168093520216 0.1056168093520216 0.1107491601077895 0.1107491601077895 0.1107491601077895 -0.1018441304799947 
-0.1018441304799947 -0.1018441304799947 -0.07261495888375982 -0.07261495888375982 -0.07261495888375982 0.3293052731325734 0.3293052731325734 0.3293052731325734 0.3082985850112081 
0.3082985850112081 0.3082985850112081 -0.2639993529759281 -0.2639993529759281 -0.2639993529759281 -0.2336741243810647 -0.2336741243810647 -0.2336741243810647 -0.7183781624293527 
-0.7183781624293527 -0.7183781624293527 -0.7402555445161869 -0.7402555445161869 -0.7402555445161869 -0.0668334595613852 -0.0668334595613852 -0.0668334595613852 -0.03932852221374342 
-0.03932852221374342 -0.03932852221374342 -0.4595907522844538 -0.4595907522844538 -0.4595907522844538 -0.4239435400902922 -0.4239435400902922 -0.4239435400902922 0.3655386128204242 
0.3655386128204242 0.3655386128204242 0.3705708746507657 0.3705708746507657 0.3705708746507657 -0.1623180748425162 -0.1623180748425162 -0.1623180748425162 -0.1673658013232626 
-0.1673658013232626 -0.1673658013232626 0.1412760239156683 0.1412760239156683 0.1412760239156683 0.121539778117456 0.121539778117456 0.121539778117456 -0.6146145212800584 
-0.6146145212800584 -0.6146145212800584 -0.6333850094445994 -0.6333850094445994 -0.6333850094445994 0.5520406334089836 0.5520406334089836 0.5520406334089836 0.5683830916693642 
0.5683830916693642 0.5683830916693642 0.07954480955840665 0.07954480955840665 0.07954480955840665 0.09178936058149986 0.09178936058149986 0.09178936058149986 -0.5338681407283341 
-0.5338681407283341 -0.5338681407283341 -0.5057705326394228 -0.5057705326394228 -0.5057705326394228 -0.1256767745844243 -0.1256767745844243 -0.1256767745844243 -0.09246873715658216 
-0.09246873715658216 -0.09246873715658216 -0.5933700146434687 -0.5933700146434687 -0.5933700146434687 -0.6203939408182491 -0.6203939408182491 -0.6203939408182491 -0.1308554308145158 
-0.1308554308145158 -0.1308554308145158 -0.1208418390101924 -0.1208418390101924 -0.1208418390101924 -0.414002156048815 -0.414002156048815 -0.414002156048815 -0.4271124144406347 
-0.4271124144406347 -0.4271124144406347 0.2153714809734032 0.2153714809734032 0.2153714809734032 0.1960513921449602 0.1960513921449602 0.1960513921449602 -0.8289975912596101 
-0.8289975912596101 -0.8289975912596101 -0.8291030840575397 -0.8291030840575397 -0.8291030840575397 -0.06992684128740326 -0.06992684128740326 -0.06992684128740326 -0.06986777109468821 
-0.06986777109468821 -0.06986777109468821 -0.4965166844690779 -0.4965166844690779 -0.4965166844690779 -0.4646140338177907 -0.4646140338177907 -0.4646140338177907 0.07661493698881651 
0.07661493698881651 0.07661493698881651 0.05990049367533604 0.05990049367533604 0.05990049367533604 0.07539265248460848 0.07539265248460848 0.07539265248460848 0.05825296429363735 
0.05825296429363735 0.05825296429363735 -0.2750545912581608 -0.2750545912581608 -0.2750545912581608 -0.2487467184662832 -0.2487467184662832 -0.2487467184662832 0.113799641566853 
0.113799641566853 0.113799641566853 0.1062492475384586 0.1062492475384586 0.1062492475384586 0.1211452665684292 0.1211452665684292 0.1211452665684292 0.1460104835108558 
0.1460104835108558 0.1460104835108558 -0.03601897853066349 -0.03601897853066349 -0.03601897853066349 -0.03071910638414364 -0.03071910638414364 -0.03071910638414364 -0.02599721648011684 
-0.02599721648011684 -0.02599721648011684 -0.02239475715946265 -0.02239475715946265 -0.02239475715946265 0.5873620226021623 0.5873620226021623 0.5873620226021623 0.6229685861425018 
0.6229685861425018 0.6229685861425018 0.6309982350055269 0.6309982350055269 0.6309982350055269 0.03504561564282008 0.03504561564282008 0.03504561564282008 0.021484951432591 
0.021484951432591 0.021484951432591 0.01500604516279164 0.01500604516279164 0.01500604516279164 0.5144806677352405 0.5144806677352405 0.5144806677352405 0.528693626596126 
0.528693626596126 0.528693626596126 0.5090770806321665 0.5090770806321665 0.5090770806321665 0.7258549480704614 0.7258549480704614 0.7258549480704614 0.7103004885499448 
0.7103004885499448 0.7103004885499448 0.6982606155912237 0.6982606155912237 0.6982606155912237 0.4705096971940891 0.4705096971940891 0.4705096971940891 0.4588000644849435 
0.4588000644849435 0.4588000644849435 0.4353392995002008 0.4353392995002008 0.4353392995002008 0.6210010547289995 0.6210010547289995 0.6210010547289995 0.6248485124675077 
0.6248485124675077 0.6248485124675077 0.5919412355770237 0.5919412355770237 0.5919412355770237 0.03255724093988061 0.03255724093988061 0.03255724093988061 -0.2224549933082947 
-0.2224549933082947 -0.2224549933082947 -0.2277237163065501 -0.2277237163065501 -0.2277237163065501 -0.2418829579312086 -0.2418829579312086 -0.2418829579312086 -0.1222637359674177 
-0.1222637359674177 -0.1222637359674177 -0.1418003850199707 -0.1418003850199707 -0.1418003850199707 -0.1056434818741736 -0.1056434818741736 -0.1056434818741736 -0.3862308675670037 
-0.3862308675670037 -0.3862308675670037 -0.4095300883345743 -0.4095300883345743 -0.4095300883345743 -0.3910212287896023 -0.3910212287896023 -0.3910212287896023 0.3835241594361974 
0.3835241594361974 0.3835241594361974 0.3728723007736461 0.3728723007736461 0.3728723007736461 0.3471094362990942 0.3471094362990942 0.3471094362990942 0.3064072981800327 
0.3064072981800327 0.3064072981800327 0.2915519516900239 0.2915519516900239 0.2915519516900239 0.3007687818321672 0.3007687818321672 0.3007687818321672 0.1276893929941731 
0.1276893929941731 0.1276893929941731 0.1158162917645774 0.1158162917645774 0.1158162917645774 0.08898645354267477 0.08898645354267477 0.08898645354267477 0.03082530476382275 
0.03082530476382275 0.03082530476382275 0.02509888072534189 0.02509888072534189 0.02509888072534189 0.01333064872783455 0.01333064872783455 0.01333064872783455 0.2043002405269873 
0.2043002405269873 0.2043002405269873 0.193594143897707 0.193594143897707 0.193594143897707 0.1804199236760377 0.1804199236760377 0.1804199236760377 -0.3257047416104896 
-0.3257047416104896 -0.3257047416104896 -0.3451614908778681 -0.3451614908778681 -0.3451614908778681 -0.3640972819147084 -0.3640972819147084 -0.3640972819147084 0.2812054967203004 
0.2812054967203004 0.2812054967203004 0.3084757748420396 0.3084757748420396 0.3084757748420396 0.3342818593218571 0.3342818593218571 0.3342818593218571 -0.1034995498201876 
-0.1034995498201876 -0.1034995498201876 -0.0873721452914419 -0.0873721452914419 -0.0873721452914419 -0.07558155143449702 -0.07558155143449702 -0.07558155143449702 0.5201173004486853 
0.5201173004486853 0.5201173004486853 0.5245742941185169 0.5245742941185169 0.5245742941185169 0.5387911536023995 0.5387911536023995 0.5387911536023995 0.1404582148129818 
0.1404582148129818 0.1404582148129818 0.140857340866416 0.140857340866416 0.140857340866416 0.1291234123198483 0.1291234123198483 0.1291234123198483 -0.1183822441079917 
-0.1183822441079917 -0.1183822441079917 -0.1459720946780613 -0.1459720946780613 -0.1459720946780613 -0.1684130788570456 -0.1684130788570456 -0.1684130788570456 -0.7749764854104437 
-0.7749764854104437 -0.7749764854104437 -0.7646096102310667 -0.7646096102310667 -0.7646096102310667 -0.7565135311000378 -0.7565135311000378 -0.7565135311000378 0.7892777560572937 
0.7892777560572937 0.7892777560572937 0.7848404451760161 0.7848404451760161 0.7848404451760161 0.7766301399244264 0.7766301399244264 0.7766301399244264 -0.1439431684527371 
-0.1439431684527371 -0.1439431684527371 -0.1542966552163788 -0.1542966552163788 -0.1542966552163788 -0.1704735140667073 -0.1704735140667073 -0.1704735140667073 0.2200874102439813 
0.2200874102439813 0.2200874102439813 0.2017180111269972 0.2017180111269972 0.2017180111269972 0.1910934886334369 0.1910934886334369 0.1910934886334369 0.8568404216708188 
0.8568404216708188 0.8568404216708188 0.855300316656901 0.855300316656901 0.855300316656901 0.852767391646685 0.852767391646685 0.852767391646685 -0.3215806289979368 
-0.3215806289979368 -0.3215806289979368 -0.3188834251258433 -0.3188834251258433 -0.3188834251258433 -0.3341167787986252 -0.3341167787986252 -0.3341167787986252 0.8348533505998664 