Title = Triangle100
FileType = Solution
Variables = q
Zone T = Triangle100
ZoneType = FETriangle
Nodes = 99072
Elements = 33024
DataPacking = Block
StrandID = 14
SolutionTime = 1.3
-0.03782844119379275 -0.03782844119379275 -0.03782844119379275 -0.03210443076790716 -0.03210443076790716 -0.03210443076790716 -0.03220925948930155 -0.03220925948930155 -0.03220925948930155 -0.7124616104151036 
-0.7124616104151036 -0.7124616104151036 -0.7192220298625469 -0.7192220298625469 -0.7192220298625469 0.2767173192177145 0.2767173192177145 0.2767173192177145 0.2493536815264863 
0.2493536815264863 0.2493536815264863 -0.1134202260694437 -0.1134202260694437 -0.1134202260694437 -0.1065367377737763 -0.1065367377737763 -0.1065367377737763 0.1674986365976769 
0.1674986365976769 0.1674986365976769 0.1674619158801102 0.1674619158801102 0.1674619158801102 -0.4098029514342863 -0.4098029514342863 -0.4098029514342863 -0.4446174140003158 
-0.4446174140003158 -0.4446174140003158 -0.6654616325647446 -0.6654616325647446 -0.6654616325647446 -0.6707522845876928 -0.6707522845876928 -0.6707522845876928 0.7713133737675768 
0.7713133737675768 0.7713133737675768 0.7844146668381113 0.7844146668381113 0.7844146668381113 -0.7628654105740438 -0.7628654105740438 -0.7628654105740438 -0.769263986043392 
-0.769263986043392 -0.769263986043392 -0.08342503528241409 -0.08342503528241409 -0.08342503528241409 -0.03592175040984121 -0.03592175040984121 -0.03592175040984121 -0.003471513783977041 
-0.003471513783977041 -0.003471513783977041 0.1362381934053067 0.1362381934053067 0.1362381934053067 0.1121346095442059 0.1121346095442059 0.1121346095442059 -0.164074705636451 
-0.164074705636451 -0.164074705636451 -0.1568830078925808 -0.1568830078925808 -0.1568830078925808 -0.03914025832036451 -0.03914025832036451 -0.03914025832036451 0.001447776368011583 
0.001447776368011583 0.001447776368011583 -0.05490927406048227 -0.05490927406048227 -0.05490927406048227 -0.03122578323689379 -0.03122578323689379 -0.03122578323689379 0.5500298057477031 
0.5500298057477031 0.5500298057477031 0.5322268338474617 0.5322268338474617 0.5322268338474617 0.5206100429502916 0.5206100429502916 0.5206100429502916 0.08400558923651902 
0.08400558923651902 0.08400558923651902 0.07299406268203272 0.07299406268203272 0.07299406268203272 0.06929597028880212 0.06929597028880212 0.06929597028880212 0.1395695673164612 
0.1395695673164612 0.1395695673164612 0.1328218820903445 0.1328218820903445 0.1328218820903445 0.150490564461052 0.150490564461052 0.150490564461052 -0.4640864865139593 
-0.4640864865139593 -0.4640864865139593 -0.4496324102924388 -0.4496324102924388 -0.4496324102924388 -0.4474688422927721 -0.4474688422927721 -0.4474688422927721 0.7583669763925651 
0.7583669763925651 0.7583669763925651 0.7502624221219956 0.7502624221219956 0.7502624221219956 0.7415935293910987 0.7415935293910987 0.7415935293910987 0.7619549449865396 
0.7619549449865396 0.7619549449865396 0.755384624272895 0.755384624272895 0.755384624272895 0.7519797517438036 0.7519797517438036 0.7519797517438036 0.2301197234267431 
0.2301197234267431 0.2301197234267431 0.2225066659750138 0.2225066659750138 0.2225066659750138 0.1822108417983981 0.1822108417983981 0.1822108417983981 0.1012234637421497 
0.1012234637421497 0.1012234637421497 0.1250713306865431 0.1250713306865431 0.1250713306865431 0.146522237299807 0.146522237299807 0.146522237299807 0.1192911556625173 
0.1192911556625173 0.1192911556625173 0.6367364728363945 0.6367364728363945 0.6367364728363945 0.6075754882516428 0.6075754882516428 0.6075754882516428 -0.258379904796893 
-0.258379904796893 -0.258379904796893 -0.2418644073361672 -0.2418644073361672 -0.2418644073361672 -0.0005660510574452119 -0.0005660510574452119 -0.0005660510574452119 0.03307130921016766 
0.03307130921016766 0.03307130921016766 0.6137465560529213 0.6137465560529213 0.6137465560529213 0.6034164781241043 0.6034164781241043 0.6034164781241043 -0.004020391779918371 
-0.004020391779918371 -0.004020391779918371 -0.003259639508706686 -0.003259639508706686 -0.003259639508706686 -0.1929572729617871 -0.1929572729617871 -0.1929572729617871 -0.1835742652894799 
-0.1835742652894799 -0.1835742652894799 0.05744377779263422 0.05744377779263422 0.05744377779263422 0.05506411222772688 0.05506411222772688 0.05506411222772688 0.4667062144553028 
0.4667062144553028 0.4667062144553028 0.4605393387217849 0.4605393387217849 0.4605393387217849 -0.7578898653193399 -0.7578898653193399 -0.7578898653193399 -0.749878952440942 
-0.749878952440942 -0.749878952440942 0.03287706364537314 0.03287706364537314 0.03287706364537314 0.02823277724904467 0.02823277724904467 0.02823277724904467 0.05284199259083944 
0.05284199259083944 0.05284199259083944 0.06891322933956363 0.06891322933956363 0.06891322933956363 -0.1528959758558374 -0.1528959758558374 -0.1528959758558374 -0.1546429766175789 
-0.1546429766175789 -0.1546429766175789 0.1997825942894453 0.1997825942894453 0.1997825942894453 0.1864151185416882 0.1864151185416882 0.1864151185416882 -0.5024169939502126 
-0.5024169939502126 -0.5024169939502126 -0.4891193609444514 -0.4891193609444514 -0.4891193609444514 -0.07055091226510937 -0.07055091226510937 -0.07055091226510937 -0.05172300134906581 
-0.05172300134906581 -0.05172300134906581 -0.1971085267036303 -0.1971085267036303 -0.1971085267036303 -0.1640905459508957 -0.1640905459508957 -0.1640905459508957 0.6059319169565778 
0.6059319169565778 0.6059319169565778 0.6157984014579168 0.6157984014579168 0.6157984014579168 -0.7081425927197246 -0.7081425927197246 -0.7081425927197246 -0.7186154257076108 
-0.7186154257076108 -0.7186154257076108 -0.05931714170274077 -0.05931714170274077 -0.05931714170274077 0.2003050472569418 0.2003050472569418 0.2003050472569418 0.1764913741018159 
0.1764913741018159 0.1764913741018159 -0.7465575380374232 -0.7465575380374232 -0.7465575380374232 -0.7638120952863281 -0.7638120952863281 -0.7638120952863281 -0.7007207075260995 
-0.7007207075260995 -0.7007207075260995 -0.6891981801224875 -0.6891981801224875 -0.6891981801224875 0.07367743027396234 0.07367743027396234 0.07367743027396234 0.05528978150108527 
0.05528978150108527 0.05528978150108527 -0.6745133588560086 -0.6745133588560086 -0.6745133588560086 -0.6747068388886578 -0.6747068388886578 -0.6747068388886578 0.1453070367571503 
0.1453070367571503 0.1453070367571503 0.1781499890974848 0.1781499890974848 0.1781499890974848 0.1306622998244811 0.1306622998244811 0.1306622998244811 0.1106874256685028 
0.1106874256685028 0.1106874256685028 -0.04961893881163919 -0.04961893881163919 -0.04961893881163919 -0.04028614343556479 -0.04028614343556479 -0.04028614343556479 -0.038858034797214 
-0.038858034797214 -0.038858034797214 -0.04361898133032874 -0.04361898133032874 -0.04361898133032874 0.6841796015234984 0.6841796015234984 0.6841796015234984 0.6614278883663685 
0.6614278883663685 0.6614278883663685 -0.07898336691952423 -0.07898336691952423 -0.07898336691952423 -0.1091721936600047 -0.1091721936600047 -0.1091721936600047 0.1184852749954423 
0.1184852749954423 0.1184852749954423 0.08035181201628755 0.08035181201628755 0.08035181201628755 0.6563467391100805 0.6563467391100805 0.6563467391100805 0.6796234216733175 
0.6796234216733175 0.6796234216733175 -0.0916389791601608 -0.0916389791601608 -0.0916389791601608 -0.06320378899766725 -0.06320378899766725 -0.06320378899766725 0.1153495640822353 
0.1153495640822353 0.1153495640822353 0.09267952093563699 0.09267952093563699 0.09267952093563699 0.1400163085585711 0.1400163085585711 0.1400163085585711 0.1690346109740914 
0.1690346109740914 0.1690346109740914 -0.423723601669014 -0.423723601669014 -0.423723601669014 -0.4342336318158675 -0.4342336318158675 -0.4342336318158675 -0.4471040211546257 
-0.4471040211546257 -0.4471040211546257 -0.27037023194466 -0.27037023194466 -0.27037023194466 -0.2703642388489814 -0.2703642388489814 -0.2703642388489814 -0.3062383135800644 
-0.3062383135800644 -0.3062383135800644 0.03538684285641794 0.03538684285641794 0.03538684285641794 0.03429933448584896 0.03429933448584896 0.03429933448584896 0.02870332949409662 
0.02870332949409662 0.02870332949409662 0.01779154169014012 0.01779154169014012 0.01779154169014012 0.01166279962891758 0.01166279962891758 0.01166279962891758 0.006619347264679357 
0.006619347264679357 0.006619347264679357 0.1814530910268931 0.1814530910268931 0.1814530910268931 0.1683380101773613 0.1683380101773613 0.1683380101773613 0.156378231395942 
0.156378231395942 0.156378231395942 -0.4748573432315665 -0.4748573432315665 -0.4748573432315665 -0.4991578267956692 -0.4991578267956692 -0.4991578267956692 -0.02905720135320576 
-0.02905720135320576 -0.02905720135320576 -0.02893228129469014 -0.02893228129469014 -0.02893228129469014 -0.02227834373276888 -0.02227834373276888 -0.02227834373276888 -0.6136030971080255 
-0.6136030971080255 -0.6136030971080255 -0.5955893381315085 -0.5955893381315085 -0.5955893381315085 -0.5824030205843168 -0.5824030205843168 -0.5824030205843168 0.0869292966817737 
0.0869292966817737 0.0869292966817737 0.08472652349482569 0.08472652349482569 0.08472652349482569 0.0808305699216466 0.0808305699216466 0.0808305699216466 -0.5051086144142711 
-0.5051086144142711 -0.5051086144142711 -0.4950121978196176 -0.4950121978196176 -0.4950121978196176 -0.5117239835369917 -0.5117239835369917 -0.5117239835369917 0.7046321128265425 
0.7046321128265425 0.7046321128265425 0.6967717944952139 0.6967717944952139 0.6967717944952139 0.6848361386937452 0.6848361386937452 0.6848361386937452 -0.04489698347721496 
-0.04489698347721496 -0.04489698347721496 -0.04730353851481645 -0.04730353851481645 -0.04730353851481645 -0.04782101014758825 -0.04782101014758825 -0.04782101014758825 -0.7277378798550563 
-0.7277378798550563 -0.7277378798550563 -0.7168640473453411 -0.7168640473453411 -0.7168640473453411 -0.7081916780680741 -0.7081916780680741 -0.7081916780680741 -0.4569128299619748 
-0.4569128299619748 -0.4569128299619748 -0.468316948433964 -0.468316948433964 -0.468316948433964 0.08082911935932835 0.08082911935932835 0.08082911935932835 0.06664468571625509 
0.06664468571625509 0.06664468571625509 0.06002369917069797 0.06002369917069797 0.06002369917069797 0.04729253232510691 0.04729253232510691 0.04729253232510691 0.04484638413904216 
0.04484638413904216 0.04484638413904216 -0.499298279474876 -0.499298279474876 -0.499298279474876 -0.4845705702216885 -0.4845705702216885 -0.4845705702216885 0.3732448412956089 
0.3732448412956089 0.3732448412956089 0.3457062411448458 0.3457062411448458 0.3457062411448458 -0.6397146490045391 -0.6397146490045391 -0.6397146490045391 -0.6047831172666411 
-0.6047831172666411 -0.6047831172666411 0.1239830196709878 0.1239830196709878 0.1239830196709878 0.1007007569284133 0.1007007569284133 0.1007007569284133 0.392046795754532 
0.392046795754532 0.392046795754532 0.3691762769839463 0.3691762769839463 0.3691762769839463 0.5671130225440741 0.5671130225440741 0.5671130225440741 0.5790152178872852 
0.5790152178872852 0.5790152178872852 0.2595851909406567 0.2595851909406567 0.2595851909406567 0.2622015541595436 0.2622015541595436 0.2622015541595436 0.5057397855524884 
0.5057397855524884 0.5057397855524884 0.5143698298263608 0.5143698298263608 0.5143698298263608 -0.6823395796184759 -0.6823395796184759 -0.6823395796184759 -0.6876220954168401 
-0.6876220954168401 -0.6876220954168401 0.8036317493144139 0.8036317493144139 0.8036317493144139 0.7868446702824944 0.7868446702824944 0.7868446702824944 -0.1655605235947722 
-0.1655605235947722 -0.1655605235947722 -0.1542712307183092 -0.1542712307183092 -0.1542712307183092 0.001796514703860082 0.001796514703860082 0.001796514703860082 -0.009797842180983077 
-0.009797842180983077 -0.009797842180983077 0.1056673948278972 0.1056673948278972 0.1056673948278972 0.1399040950724613 0.1399040950724613 0.1399040950724613 0.05880993766111842 
0.05880993766111842 0.05880993766111842 0.06668811076374923 0.06668811076374923 0.06668811076374923 -0.1158144213237271 -0.1158144213237271 -0.1158144213237271 -0.129591120105006 
-0.129591120105006 -0.129591120105006 -0.1989860267606906 -0.1989860267606906 -0.1989860267606906 -0.1695503616194377 -0.1695503616194377 -0.1695503616194377 0.5692681521277718 
0.5692681521277718 0.5692681521277718 0.5723502324317142 0.5723502324317142 0.5723502324317142 0.6287523931765975 0.6287523931765975 0.6287523931765975 0.6330546361192563 
0.6330546361192563 0.6330546361192563 0.5597296119804802 0.5597296119804802 0.5597296119804802 0.5654662102972322 0.5654662102972322 0.5654662102972322 -0.1235618207608802 
-0.1235618207608802 -0.1235618207608802 -0.1304251699789988 -0.1304251699789988 -0.1304251699789988 0.674229957077028 0.674229957077028 0.674229957077028 0.6802679417080506 
0.6802679417080506 0.6802679417080506 -0.04355404229963619 -0.04355404229963619 -0.04355404229963619 -0.03512607113269627 -0.03512607113269627 -0.03512607113269627 0.6516311155520482 
0.6516311155520482 0.6516311155520482 0.6467910929459403 0.6467910929459403 0.6467910929459403 -0.2504662190351234 -0.2504662190351234 -0.2504662190351234 -0.2812135574145178 
-0.2812135574145178 -0.2812135574145178 0.1853814565030103 0.1853814565030103 0.1853814565030103 0.2024814366222565 0.2024814366222565 0.2024814366222565 0.7212995599395071 
0.7212995599395071 0.7212995599395071 0.734090395995966 0.734090395995966 0.734090395995966 -0.4577541750756171 -0.4577541750756171 -0.4577541750756171 -0.4720059554236847 
-0.4720059554236847 -0.4720059554236847 -0.3550709308908394 -0.3550709308908394 -0.3550709308908394 -0.3527776468968643 -0.3527776468968643 -0.3527776468968643 0.1599921458776766 
0.1599921458776766 0.1599921458776766 0.180565891848649 0.180565891848649 0.180565891848649 -0.6615966623319995 -0.6615966623319995 -0.6615966623319995 -0.652840351315942 
-0.652840351315942 -0.652840351315942 -0.6707544568487532 -0.6707544568487532 -0.6707544568487532 -0.6758858935911702 -0.6758858935911702 -0.6758858935911702 0.21230954488408 
0.21230954488408 0.21230954488408 0.2267327986705275 0.2267327986705275 0.2267327986705275 0.1170993309394047 0.1170993309394047 0.1170993309394047 0.1231976589657456 
0.1231976589657456 0.1231976589657456 0.1618594798190436 0.1618594798190436 0.1618594798190436 0.09868590261505363 0.09868590261505363 0.09868590261505363 0.08237753775123374 
0.08237753775123374 0.08237753775123374 -0.02375490497914442 -0.02375490497914442 -0.02375490497914442 -0.04795449763607491 -0.04795449763607491 -0.04795449763607491 -0.01775516159373166 
-0.01775516159373166 -0.01775516159373166 -0.01515964168741054 -0.01515964168741054 -0.01515964168741054 0.8507011535633399 0.8507011535633399 0.8507011535633399 0.8460542888751693 
0.8460542888751693 0.8460542888751693 -0.2182910990338846 -0.2182910990338846 -0.2182910990338846 -0.2130503920873281 -0.2130503920873281 -0.2130503920873281 -0.3449848537082819 
-0.3449848537082819 -0.3449848537082819 -0.3468907894081408 -0.3468907894081408 -0.3468907894081408 0.1039778824826884 0.1039778824826884 0.1039778824826884 0.08834371368178703 
0.08834371368178703 0.08834371368178703 0.1412422029585864 0.1412422029585864 0.1412422029585864 0.1430499314935002 0.1430499314935002 0.1430499314935002 0.6122903663233985 
0.6122903663233985 0.6122903663233985 0.6036430194504918 0.6036430194504918 0.6036430194504918 0.1837654926564526 0.1837654926564526 0.1837654926564526 0.195628464256792 
0.195628464256792 0.195628464256792 -0.5022866871985743 -0.5022866871985743 -0.5022866871985743 0.7453474401750286 0.7453474401750286 0.7453474401750286 0.7262641641858859 
0.7262641641858859 0.7262641641858859 0.1855654768304153 0.1855654768304153 0.1855654768304153 0.1570463527292277 0.1570463527292277 0.1570463527292277 0.4440686232304192 
0.4440686232304192 0.4440686232304192 0.4314421649003199 0.4314421649003199 0.4314421649003199 -0.2693736873774943 -0.2693736873774943 -0.2693736873774943 -0.2953282013991451 
-0.2953282013991451 -0.2953282013991451 -0.07771114693777635 -0.07771114693777635 -0.07771114693777635 -0.09470823923772755 -0.09470823923772755 -0.09470823923772755 0.178954342082294 
0.178954342082294 0.178954342082294 -0.587199315803096 -0.587199315803096 -0.587199315803096 -0.5849823811328131 -0.5849823811328131 -0.5849823811328131 -0.08358166757571167 
-0.08358166757571167 -0.08358166757571167 -0.08964739545877409 -0.08964739545877409 -0.08964739545877409 0.1369279576181752 0.1369279576181752 0.1369279576181752 0.1482585133236882 
0.1482585133236882 0.1482585133236882 -0.3885429299341158 -0.3885429299341158 -0.3885429299341158 -0.3735609367622801 -0.3735609367622801 -0.3735609367622801 0.4766757080322717 
0.4766757080322717 0.4766757080322717 0.4674065418752115 0.4674065418752115 0.4674065418752115 0.1478723464096079 0.1478723464096079 0.1478723464096079 0.1465334815692718 
0.1465334815692718 0.1465334815692718 0.4913526136729161 0.4913526136729161 0.4913526136729161 0.5061907452622483 0.5061907452622483 0.5061907452622483 -0.2832674606712314 
-0.2832674606712314 -0.2832674606712314 -0.2932198886577393 -0.2932198886577393 -0.2932198886577393 0.542966317093321 0.542966317093321 0.542966317093321 0.5584864617463099 
0.5584864617463099 0.5584864617463099 0.01908274926749139 0.01908274926749139 0.01908274926749139 0.03609010645511864 0.03609010645511864 0.03609010645511864 -0.1935508864912351 
-0.1935508864912351 -0.1935508864912351 -0.2049832159926319 -0.2049832159926319 -0.2049832159926319 -0.0210529235987766 -0.0210529235987766 -0.0210529235987766 -0.02336496162997331 
-0.02336496162997331 -0.02336496162997331 0.5513494827890326 0.5513494827890326 0.5513494827890326 0.5638569704074008 0.5638569704074008 0.5638569704074008 -0.4659623989582945 
-0.4659623989582945 -0.4659623989582945 -0.4486574429215135 -0.4486574429215135 -0.4486574429215135 0.3444673673608776 0.3444673673608776 0.3444673673608776 0.7789193623092002 
0.7789193623092002 0.7789193623092002 -0.753731591388068 -0.753731591388068 -0.753731591388068 -0.1869464550983693 -0.1869464550983693 -0.1869464550983693 -0.1717889993856073 
-0.1717889993856073 -0.1717889993856073 0.7082349271845472 0.7082349271845472 0.7082349271845472 0.7288936455848896 0.7288936455848896 0.7288936455848896 0.09195337109951318 
0.09195337109951318 0.09195337109951318 0.1079421396971555 0.1079421396971555 0.1079421396971555 -0.7772244256548881 -0.7772244256548881 -0.7772244256548881 -0.7887711574165255 
-0.7887711574165255 -0.7887711574165255 0.5244262880852884 0.5244262880852884 0.5244262880852884 0.5652340039457306 0.5652340039457306 0.5652340039457306 -0.1331343484120879 
-0.1331343484120879 -0.1331343484120879 -0.1305575411764934 -0.1305575411764934 -0.1305575411764934 0.2193124385388424 0.2193124385388424 0.2193124385388424 0.218608342832967 
0.218608342832967 0.218608342832967 -0.04730235647470502 -0.04730235647470502 -0.04730235647470502 -0.02817573455015721 -0.02817573455015721 -0.02817573455015721 -0.1123088157703928 
-0.1123088157703928 -0.1123088157703928 -0.1347876664748986 -0.1347876664748986 -0.1347876664748986 -0.2820030936632226 -0.2820030936632226 -0.2820030936632226 -0.2701140557847129 
-0.2701140557847129 -0.2701140557847129 0.003361287999414289 0.003361287999414289 0.003361287999414289 -0.03368064052436863 -0.03368064052436863 -0.03368064052436863 0.366807242772155 
0.366807242772155 0.366807242772155 0.3774185072978263 0.3774185072978263 0.3774185072978263 -0.1202549987987643 -0.1202549987987643 -0.1202549987987643 -0.1291755929208944 
-0.1291755929208944 -0.1291755929208944 -0.8048842637673244 -0.8048842637673244 -0.8048842637673244 -0.8155771848277167 -0.8155771848277167 -0.8155771848277167 0.007235306611251347 
0.007235306611251347 0.007235306611251347 0.009942712793650796 0.009942712793650796 0.009942712793650796 0.0964822196389379 0.0964822196389379 0.0964822196389379 0.07499522640323839 
0.07499522640323839 0.07499522640323839 0.4975890815266533 0.4975890815266533 0.4975890815266533 -0.227197121400345 -0.227197121400345 -0.227197121400345 -0.2704788621854853 
-0.2704788621854853 -0.2704788621854853 -0.7817966174906397 -0.7817966174906397 -0.7817966174906397 -0.7643997973854757 -0.7643997973854757 -0.7643997973854757 0.1048763050281126 
0.1048763050281126 0.1048763050281126 0.1127178464294677 0.1127178464294677 0.1127178464294677 -0.6080736443466168 -0.6080736443466168 -0.6080736443466168 -0.6271483478075285 
-0.6271483478075285 -0.6271483478075285 -0.07403056968311364 -0.07403056968311364 -0.07403056968311364 -0.1080167162720017 -0.1080167162720017 -0.1080167162720017 0.7396791672465707 
0.7396791672465707 0.7396791672465707 0.7523425803958201 0.7523425803958201 0.7523425803958201 0.2738562765497788 0.2738562765497788 0.2738562765497788 0.2288975696280023 
0.2288975696280023 0.2288975696280023 -0.05586432906074669 -0.05586432906074669 -0.05586432906074669 -0.09394819568075971 -0.09394819568075971 -0.09394819568075971 0.06451858266993717 
0.06451858266993717 0.06451858266993717 0.05958763822779384 0.05958763822779384 0.05958763822779384 -0.7365444570865189 -0.7365444570865189 -0.7365444570865189 -0.7588019937508852 
-0.7588019937508852 -0.7588019937508852 0.1368086546358188 0.1368086546358188 0.1368086546358188 0.188443441275696 0.188443441275696 0.188443441275696 -0.01255123750385319 
-0.01255123750385319 -0.01255123750385319 -0.04356379230596762 -0.04356379230596762 -0.04356379230596762 -0.7559680592584905 -0.7559680592584905 -0.7559680592584905 -0.7339470892203198 
-0.7339470892203198 -0.7339470892203198 0.04586893468441556 0.04586893468441556 0.04586893468441556 0.0510689316210116 0.0510689316210116 0.0510689316210116 -0.2773578207901334 
-0.2773578207901334 -0.2773578207901334 -0.2782734048817059 -0.2782734048817059 -0.2782734048817059 -0.5669634274536149 -0.5669634274536149 -0.5669634274536149 -0.5857623563438153 
-0.5857623563438153 -0.5857623563438153 0.0637986371447575 0.0637986371447575 0.0637986371447575 0.05516457790143262 0.05516457790143262 0.05516457790143262 -0.3456699542315038 
-0.3456699542315038 -0.3456699542315038 -0.3134704301629083 -0.3134704301629083 -0.3134704301629083 -0.1760734484191233 -0.1760734484191233 -0.1760734484191233 -0.2011652679821005 
-0.2011652679821005 -0.2011652679821005 -0.04273167090502539 -0.04273167090502539 -0.04273167090502539 -0.009081403619535289 -0.009081403619535289 -0.009081403619535289 -0.3351952470467425 
-0.3351952470467425 -0.3351952470467425 -0.3603118620715271 -0.3603118620715271 -0.3603118620715271 0.1132018139348042 0.1132018139348042 0.1132018139348042 0.1253887393080534 
0.1253887393080534 0.1253887393080534 -0.5870794446549689 -0.5870794446549689 -0.5870794446549689 -0.5703437708942354 -0.5703437708942354 -0.5703437708942354 0.1023031701621706 
0.1023031701621706 0.1023031701621706 0.07826545624776926 0.07826545624776926 0.07826545624776926 -0.04551701663019408 -0.04551701663019408 -0.04551701663019408 -0.04222584521569701 
-0.04222584521569701 -0.04222584521569701 0.4932337808209757 0.4932337808209757 0.4932337808209757 0.4742555680587774 0.4742555680587774 0.4742555680587774 -0.3079589643045781 
-0.3079589643045781 -0.3079589643045781 -0.332125053936669 -0.332125053936669 -0.332125053936669 0.6342253820969341 0.6342253820969341 0.6342253820969341 0.6579571006191565 
0.6579571006191565 0.6579571006191565 -0.001980361493268513 -0.001980361493268513 -0.001980361493268513 -0.01419674425553362 -0.01419674425553362 -0.01419674425553362 -0.05181858405624669 
-0.05181858405624669 -0.05181858405624669 -0.02057794710560053 -0.02057794710560053 -0.02057794710560053 -0.03337461169579856 -0.03337461169579856 -0.03337461169579856 -0.02099199225825181 
-0.02099199225825181 -0.02099199225825181 -0.8170276926723707 -0.8170276926723707 -0.8170276926723707 -0.8157027236388461 -0.8157027236388461 -0.8157027236388461 0.08176922058714541 
0.08176922058714541 0.08176922058714541 0.08746009071852846 0.08746009071852846 0.08746009071852846 -0.7715839415853258 -0.7715839415853258 -0.7715839415853258 -0.7710229920026045 
-0.7710229920026045 -0.7710229920026045 0.5309786129125684 0.5309786129125684 0.5309786129125684 0.5026047133293472 0.5026047133293472 0.5026047133293472 -0.785527648202595 
-0.785527648202595 -0.785527648202595 -0.7730344277372856 -0.7730344277372856 -0.7730344277372856 -0.3858922596978425 -0.3858922596978425 -0.3858922596978425 -0.3989785878129829 
-0.3989785878129829 -0.3989785878129829 -0.3354241410692096 -0.3354241410692096 -0.3354241410692096 -0.305857311615242 -0.305857311615242 -0.305857311615242 0.4309667547402597 
0.4309667547402597 0.4309667547402597 0.3977692602914563 0.3977692602914563 0.3977692602914563 0.2818196083930889 0.2818196083930889 0.2818196083930889 0.2899452362340562 
0.2899452362340562 0.2899452362340562 0.143067432910217 0.143067432910217 0.143067432910217 0.1595481180184922 0.1595481180184922 0.1595481180184922 0.1697099659820901 
0.1697099659820901 0.1697099659820901 0.1327845293375584 0.1327845293375584 0.1327845293375584 -0.1056786173541082 -0.1056786173541082 -0.1056786173541082 -0.08135640221055718 
-0.08135640221055718 -0.08135640221055718 -0.2693090070263967 -0.2693090070263967 -0.2693090070263967 -0.2776061493890638 -0.2776061493890638 -0.2776061493890638 -0.2669196464939184 
-0.2669196464939184 -0.2669196464939184 -0.2543582237747728 -0.2543582237747728 -0.2543582237747728 0.7489703921490666 0.7489703921490666 0.7489703921490666 0.7727830367473439 
0.7727830367473439 0.7727830367473439 0.7720154154176111 0.7720154154176111 0.7720154154176111 0.4572963016621961 0.4572963016621961 0.4572963016621961 0.4403543711345322 
0.4403543711345322 0.4403543711345322 0.4442329216022884 0.4442329216022884 0.4442329216022884 0.158381843012967 0.158381843012967 0.158381843012967 0.1706440114998826 
0.1706440114998826 0.1706440114998826 0.1642802584613804 0.1642802584613804 0.1642802584613804 0.4383592555968294 0.4383592555968294 0.4383592555968294 0.4210876845960019 
0.4210876845960019 0.4210876845960019 0.4165814909023172 0.4165814909023172 0.4165814909023172 0.7204609467886899 0.7204609467886899 0.7204609467886899 0.7162954967734194 
0.7162954967734194 0.7162954967734194 0.693491194482732 0.693491194482732 0.693491194482732 0.3622976092807121 0.3622976092807121 0.3622976092807121 0.3883768782265871 
0.3883768782265871 0.3883768782265871 0.3681443681724359 0.3681443681724359 0.3681443681724359 0.2878560055537617 0.2878560055537617 0.2878560055537617 -0.6517493839408985 
-0.6517493839408985 -0.6517493839408985 -0.659639715739778 -0.659639715739778 -0.659639715739778 -0.6705079447880511 -0.6705079447880511 -0.6705079447880511 0.3832343899472266 
0.3832343899472266 0.3832343899472266 0.3651090537285252 0.3651090537285252 0.3651090537285252 0.3981642031546095 0.3981642031546095 0.3981642031546095 -0.7662485073355275 
-0.7662485073355275 -0.7662485073355275 -0.7772166058488366 -0.7772166058488366 -0.7772166058488366 -0.7665611899956974 -0.7665611899956974 -0.7665611899956974 0.09840530716331347 
0.09840530716331347 0.09840530716331347 0.1136994522546943 0.1136994522546943 0.1136994522546943 0.08377771840552208 0.08377771840552208 0.08377771840552208 0.05922855047832169 
0.05922855047832169 0.05922855047832169 0.04708791066661679 0.04708791066661679 0.04708791066661679 0.05523685786865178 0.05523685786865178 0.05523685786865178 0.05483119918295574 
0.05483119918295574 0.05483119918295574 0.06125119851659282 0.06125119851659282 0.06125119851659282 0.07175626438777226 0.07175626438777226 0.07175626438777226 -0.1997846521712824 
-0.1997846521712824 -0.1997846521712824 -0.2067520068323422 -0.2067520068323422 -0.2067520068323422 -0.2198069966439412 -0.2198069966439412 -0.2198069966439412 0.5288411499261885 
0.5288411499261885 0.5288411499261885 0.5172615962985566 0.5172615962985566 0.5172615962985566 0.4918700984807485 0.4918700984807485 0.4918700984807485 -0.7315376678205063 
-0.7315376678205063 -0.7315376678205063 -0.7436244400696927 -0.7436244400696927 -0.7436244400696927 -0.7545304420612015 -0.7545304420612015 -0.7545304420612015 0.03492529612411306 
0.03492529612411306 0.03492529612411306 0.06551371316869706 0.06551371316869706 0.06551371316869706 0.09067364247467803 0.09067364247467803 0.09067364247467803 -0.2782303748123915 
-0.2782303748123915 -0.2782303748123915 -0.2720647106939544 -0.2720647106939544 -0.2720647106939544 -0.2711942605244951 -0.2711942605244951 -0.2711942605244951 0.8267905802897839 
0.8267905802897839 0.8267905802897839 0.8288588884305753 0.8288588884305753 0.8288588884305753 0.8334212956459461 0.8334212956459461 0.8334212956459461 -0.007575048452799889 
-0.007575048452799889 -0.007575048452799889 -0.0002066398073501609 -0.0002066398073501609 -0.0002066398073501609 -0.009023691994195383 -0.009023691994195383 -0.009023691994195383 0.2403935239275481 
0.2403935239275481 0.2403935239275481 0.2180637180537019 0.2180637180537019 0.2180637180537019 0.1934106284421075 0.1934106284421075 0.1934106284421075 -0.8116995792616077 
-0.8116995792616077 -0.8116995792616077 -0.8147231952090159 -0.8147231952090159 -0.8147231952090159 -0.8191127227188133 -0.8191127227188133 -0.8191127227188133 0.7462162874400113 
0.7462162874400113 0.7462162874400113 0.7548181043440239 0.7548181043440239 0.7548181043440239 0.7627837203405659 0.7627837203405659 0.7627837203405659 0.3195536567055217 
0.3195536567055217 0.3195536567055217 0.3062476607824038 0.3062476607824038 0.3062476607824038 0.2837024114504794 0.2837024114504794 0.2837024114504794 0.02620947242058951 
0.02620947242058951 0.02620947242058951 0.0196773727304857 0.0196773727304857 0.0196773727304857 0.02031688955412373 0.02031688955412373 0.02031688955412373 0.7150114696082116 
0.7150114696082116 0.7150114696082116 0.7299324966487105 0.7299324966487105 0.7299324966487105 0.7388417498951878 0.7388417498951878 0.7388417498951878 -0.7013732390613031 
-0.7013732390613031 -0.7013732390613031 -0.7060749731612725 -0.7060749731612725 -0.7060749731612725 -0.7167139047508237 -0.7167139047508237 -0.7167139047508237 0.5804217022118068 