Title = Triangle100
FileType = Solution
Variables = q
Zone T = Triangle100
ZoneType = FETriangle
Nodes = 99072
Elements = 33024
DataPacking = Block
StrandID = 21
SolutionTime = 2
0.5170279990217945 0.5170279990217945 0.5170279990217945 0.5000582084729902 0.5000582084729902 0.5000582084729902 0.5013929496036701 0.5013929496036701 0.5013929496036701 -0.250421119070614 
-0.250421119070614 -0.250421119070614 -0.2227867361757203 -0.2227867361757203 -0.2227867361757203 0.4321280248759579 0.4321280248759579 0.4321280248759579 0.433007061514223 
0.433007061514223 0.433007061514223 -0.2240463792593545 -0.2240463792593545 -0.2240463792593545 -0.2117793762327075 -0.2117793762327075 -0.2117793762327075 0.713507618405704 
0.713507618405704 0.713507618405704 0.7066988599271204 0.7066988599271204 0.7066988599271204 0.04688547778075701 0.04688547778075701 0.04688547778075701 0.05493520076439804 
0.05493520076439804 0.05493520076439804 -0.4879920353800393 -0.4879920353800393 -0.4879920353800393 -0.4807272826661882 -0.4807272826661882 -0.4807272826661882 0.2718618761411076 
0.2718618761411076 0.2718618761411076 0.2564282480065443 0.2564282480065443 0.2564282480065443 -0.01024185639026103 -0.01024185639026103 -0.01024185639026103 -0.01097667786873952 
-0.01097667786873952 -0.01097667786873952 0.3367211047325716 0.3367211047325716 0.3367211047325716 0.3752364507069744 0.3752364507069744 0.3752364507069744 0.340844316236298 
0.340844316236298 0.340844316236298 0.5310528182476025 0.5310528182476025 0.5310528182476025 0.520154027097234 0.520154027097234 0.520154027097234 -0.1437088817860523 
-0.1437088817860523 -0.1437088817860523 -0.1080990987292675 -0.1080990987292675 -0.1080990987292675 -0.2276147488330782 -0.2276147488330782 -0.2276147488330782 -0.2055035844178301 
-0.2055035844178301 -0.2055035844178301 -0.2749983492288238 -0.2749983492288238 -0.2749983492288238 -0.2870011217830247 -0.2870011217830247 -0.2870011217830247 -0.3339403911411502 
-0.3339403911411502 -0.3339403911411502 -0.3492914605607977 -0.3492914605607977 -0.3492914605607977 -0.3589350260238536 -0.3589350260238536 -0.3589350260238536 0.6154070763614978 
0.6154070763614978 0.6154070763614978 0.6015049062192311 0.6015049062192311 0.6015049062192311 0.5930784597504215 0.5930784597504215 0.5930784597504215 -0.5164542831987724 
-0.5164542831987724 -0.5164542831987724 -0.524465132111712 -0.524465132111712 -0.524465132111712 -0.50253057684491 -0.50253057684491 -0.50253057684491 0.04299571825621332 
0.04299571825621332 0.04299571825621332 0.04484576946473642 0.04484576946473642 0.04484576946473642 0.04942969793757349 0.04942969793757349 0.04942969793757349 0.1939285689668623 
0.1939285689668623 0.1939285689668623 0.1942513529921145 0.1942513529921145 0.1942513529921145 0.1811403849846222 0.1811403849846222 0.1811403849846222 0.2097062936513455 
0.2097062936513455 0.2097062936513455 0.2011761238577923 0.2011761238577923 0.2011761238577923 0.1899124984315736 0.1899124984315736 0.1899124984315736 0.2678650804683369 
0.2678650804683369 0.2678650804683369 0.253110115638906 0.253110115638906 0.253110115638906 0.2526930940830953 0.2526930940830953 0.2526930940830953 0.7852230928160059 
0.7852230928160059 0.7852230928160059 0.7849049908835528 0.7849049908835528 0.7849049908835528 -0.2840769447024684 -0.2840769447024684 -0.2840769447024684 -0.2911514888703788 
-0.2911514888703788 -0.2911514888703788 -0.1091565429436515 -0.1091565429436515 -0.1091565429436515 -0.1037564801052696 -0.1037564801052696 -0.1037564801052696 0.2195403648683982 
0.2195403648683982 0.2195403648683982 0.2419665131626306 0.2419665131626306 0.2419665131626306 0.1852476056472547 0.1852476056472547 0.1852476056472547 0.1843135569682335 
0.1843135569682335 0.1843135569682335 0.5213027249262236 0.5213027249262236 0.5213027249262236 0.5378948884307542 0.5378948884307542 0.5378948884307542 -0.7219859789286495 
-0.7219859789286495 -0.7219859789286495 -0.7258809484300002 -0.7258809484300002 -0.7258809484300002 0.2747066367536328 0.2747066367536328 0.2747066367536328 0.2486393989414837 
0.2486393989414837 0.2486393989414837 -0.540068383921755 -0.540068383921755 -0.540068383921755 -0.5432340738125174 -0.5432340738125174 -0.5432340738125174 -0.1755385530949126 
-0.1755385530949126 -0.1755385530949126 -0.168193713290333 -0.168193713290333 -0.168193713290333 0.02979054622047117 0.02979054622047117 0.02979054622047117 0.04317069299769526 
0.04317069299769526 0.04317069299769526 -0.4463527853888786 -0.4463527853888786 -0.4463527853888786 -0.4550184655539879 -0.4550184655539879 -0.4550184655539879 -0.1164360147878847 
-0.1164360147878847 -0.1164360147878847 -0.1088485579400395 -0.1088485579400395 -0.1088485579400395 -0.6673361380624426 -0.6673361380624426 -0.6673361380624426 -0.6762903304049788 
-0.6762903304049788 -0.6762903304049788 -0.114514125313438 -0.114514125313438 -0.114514125313438 -0.1210912404762586 -0.1210912404762586 -0.1210912404762586 -0.1024973729663777 
-0.1024973729663777 -0.1024973729663777 -0.09749107226452493 -0.09749107226452493 -0.09749107226452493 0.3584105744895568 0.3584105744895568 0.3584105744895568 0.367619596898307 
0.367619596898307 0.367619596898307 -0.08082432098260418 -0.08082432098260418 -0.08082432098260418 -0.06546252765252303 -0.06546252765252303 -0.06546252765252303 0.4669966294066193 
0.4669966294066193 0.4669966294066193 0.4659148235597884 0.4659148235597884 0.4659148235597884 -0.2144072951089948 -0.2144072951089948 -0.2144072951089948 -0.1877862223114508 
-0.1877862223114508 -0.1877862223114508 0.4007078974535423 0.4007078974535423 0.4007078974535423 0.7433742452606174 0.7433742452606174 0.7433742452606174 0.7333208679020444 
0.7333208679020444 0.7333208679020444 0.01071763573876695 0.01071763573876695 0.01071763573876695 0.005813827277889138 0.005813827277889138 0.005813827277889138 -0.3045383547031656 
-0.3045383547031656 -0.3045383547031656 -0.3403782842236552 -0.3403782842236552 -0.3403782842236552 0.7837930208804221 0.7837930208804221 0.7837930208804221 0.7761770778518438 
0.7761770778518438 0.7761770778518438 -0.4596598855312204 -0.4596598855312204 -0.4596598855312204 -0.4694219520423278 -0.4694219520423278 -0.4694219520423278 -0.5020825905813209 
-0.5020825905813209 -0.5020825905813209 -0.4729397035612908 -0.4729397035612908 -0.4729397035612908 0.7851766261215568 0.7851766261215568 0.7851766261215568 0.7818593285346422 
0.7818593285346422 0.7818593285346422 0.513855984302533 0.513855984302533 0.513855984302533 0.5090654541382 0.5090654541382 0.5090654541382 0.6491051738705901 
0.6491051738705901 0.6491051738705901 0.6328805839596633 0.6328805839596633 0.6328805839596633 0.1791201506413669 0.1791201506413669 0.1791201506413669 0.1821060067343108 
0.1821060067343108 0.1821060067343108 -0.2352026196989634 -0.2352026196989634 -0.2352026196989634 -0.2180219969601674 -0.2180219969601674 -0.2180219969601674 0.003832865572098147 
0.003832865572098147 0.003832865572098147 0.02626412341233517 0.02626412341233517 0.02626412341233517 -0.2049172082778058 -0.2049172082778058 -0.2049172082778058 -0.1692733110512723 
-0.1692733110512723 -0.1692733110512723 -0.1738139174758694 -0.1738139174758694 -0.1738139174758694 -0.1727158266710294 -0.1727158266710294 -0.1727158266710294 0.05211529530328728 
0.05211529530328728 0.05211529530328728 0.0922321548476894 0.0922321548476894 0.0922321548476894 0.2263225237164302 0.2263225237164302 0.2263225237164302 0.2029775228931492 
0.2029775228931492 0.2029775228931492 0.2434257192645051 0.2434257192645051 0.2434257192645051 0.2294136590180648 0.2294136590180648 0.2294136590180648 0.2121580730890669 
0.2121580730890669 0.2121580730890669 -0.5197607388172231 -0.5197607388172231 -0.5197607388172231 -0.4927985367145669 -0.4927985367145669 -0.4927985367145669 -0.4802149432395269 
-0.4802149432395269 -0.4802149432395269 -0.5906592842231967 -0.5906592842231967 -0.5906592842231967 -0.5970078202966619 -0.5970078202966619 -0.5970078202966619 -0.6066965389861302 
-0.6066965389861302 -0.6066965389861302 0.2935698956621001 0.2935698956621001 0.2935698956621001 0.2914296749472011 0.2914296749472011 0.2914296749472011 0.283469637660095 
0.283469637660095 0.283469637660095 -0.662145883919794 -0.662145883919794 -0.662145883919794 -0.672118701882727 -0.672118701882727 -0.672118701882727 -0.6801032032222256 
-0.6801032032222256 -0.6801032032222256 0.03841725235646881 0.03841725235646881 0.03841725235646881 0.047279165469477 0.047279165469477 0.047279165469477 0.4889384084926001 
0.4889384084926001 0.4889384084926001 0.4842313930693005 0.4842313930693005 0.4842313930693005 0.460881102250112 0.460881102250112 0.460881102250112 -0.5391248802177633 
-0.5391248802177633 -0.5391248802177633 -0.5553173004305012 -0.5553173004305012 -0.5553173004305012 -0.5693033538106661 -0.5693033538106661 -0.5693033538106661 -0.5340184449052038 
-0.5340184449052038 -0.5340184449052038 -0.5293462478769386 -0.5293462478769386 -0.5293462478769386 -0.5326303330464708 -0.5326303330464708 -0.5326303330464708 -0.04880146871965188 
-0.04880146871965188 -0.04880146871965188 -0.06953403353009607 -0.06953403353009607 -0.06953403353009607 -0.08140854742020409 -0.08140854742020409 -0.08140854742020409 0.1614653544666342 
0.1614653544666342 0.1614653544666342 0.1602642596366901 0.1602642596366901 0.1602642596366901 0.1501200531645553 0.1501200531645553 0.1501200531645553 0.6254939170584192 
0.6254939170584192 0.6254939170584192 0.6085153292370105 0.6085153292370105 0.6085153292370105 0.60765347588867 0.60765347588867 0.60765347588867 0.125384311203988 
0.125384311203988 0.125384311203988 0.1428610208438996 0.1428610208438996 0.1428610208438996 0.1544039036913534 0.1544039036913534 0.1544039036913534 0.198735776613906 
0.198735776613906 0.198735776613906 0.1829122205222743 0.1829122205222743 0.1829122205222743 -0.2728892445161724 -0.2728892445161724 -0.2728892445161724 -0.2807832694844992 
-0.2807832694844992 -0.2807832694844992 -0.2914750442787407 -0.2914750442787407 -0.2914750442787407 -0.5065852474463713 -0.5065852474463713 -0.5065852474463713 -0.489373944153891 
-0.489373944153891 -0.489373944153891 0.2330415409769539 0.2330415409769539 0.2330415409769539 0.240503057374133 0.240503057374133 0.240503057374133 0.3260700422011875 
0.3260700422011875 0.3260700422011875 0.3535831046579836 0.3535831046579836 0.3535831046579836 -0.4939748831889215 -0.4939748831889215 -0.4939748831889215 -0.5233343194593543 
-0.5233343194593543 -0.5233343194593543 0.5577018797570121 0.5577018797570121 0.5577018797570121 0.5431412682490475 0.5431412682490475 0.5431412682490475 0.5290447696173869 
0.5290447696173869 0.5290447696173869 0.5268403304052627 0.5268403304052627 0.5268403304052627 -0.2582462138366282 -0.2582462138366282 -0.2582462138366282 -0.2486967057171705 
-0.2486967057171705 -0.2486967057171705 0.7387597622776465 0.7387597622776465 0.7387597622776465 0.7335817461409453 0.7335817461409453 0.7335817461409453 -0.04768388759269325 
-0.04768388759269325 -0.04768388759269325 -0.05315377926055402 -0.05315377926055402 -0.05315377926055402 -0.1640055032971681 -0.1640055032971681 -0.1640055032971681 -0.1308024214172151 
-0.1308024214172151 -0.1308024214172151 0.1598043628654215 0.1598043628654215 0.1598043628654215 0.1525912529073843 0.1525912529073843 0.1525912529073843 0.3338993743260777 
0.3338993743260777 0.3338993743260777 0.337982305989641 0.337982305989641 0.337982305989641 -0.2464416842491725 -0.2464416842491725 -0.2464416842491725 -0.242860041165228 
-0.242860041165228 -0.242860041165228 0.06038784279167406 0.06038784279167406 0.06038784279167406 0.04087739571177364 0.04087739571177364 0.04087739571177364 0.782495670716574 
0.782495670716574 0.782495670716574 0.7833772928128349 0.7833772928128349 0.7833772928128349 -0.5555362610986014 -0.5555362610986014 -0.5555362610986014 -0.5608333585126739 
-0.5608333585126739 -0.5608333585126739 -0.5557200569457927 -0.5557200569457927 -0.5557200569457927 -0.5630502629290994 -0.5630502629290994 -0.5630502629290994 0.5293632322500332 
0.5293632322500332 0.5293632322500332 0.5395699414506419 0.5395699414506419 0.5395699414506419 -0.2036118233208239 -0.2036118233208239 -0.2036118233208239 -0.2130092669877883 
-0.2130092669877883 -0.2130092669877883 -0.1378390460942279 -0.1378390460942279 -0.1378390460942279 -0.1393445000113392 -0.1393445000113392 -0.1393445000113392 0.4301992380960169 
0.4301992380960169 0.4301992380960169 0.4212157092183924 0.4212157092183924 0.4212157092183924 -0.1839985140478823 -0.1839985140478823 -0.1839985140478823 -0.1713439373078877 
-0.1713439373078877 -0.1713439373078877 0.7453553894914996 0.7453553894914996 0.7453553894914996 0.7492907940194141 0.7492907940194141 0.7492907940194141 -0.09360540874023046 
-0.09360540874023046 -0.09360540874023046 -0.09746426192936077 -0.09746426192936077 -0.09746426192936077 -0.4869170963339103 -0.4869170963339103 -0.4869170963339103 -0.4638113185923148 
-0.4638113185923148 -0.4638113185923148 -0.4185788468180188 -0.4185788468180188 -0.4185788468180188 -0.4156672145407607 -0.4156672145407607 -0.4156672145407607 -0.05982366838641926 
-0.05982366838641926 -0.05982366838641926 -0.05376303031263835 -0.05376303031263835 -0.05376303031263835 -0.07411934197266129 -0.07411934197266129 -0.07411934197266129 -0.07981064755036887 
-0.07981064755036887 -0.07981064755036887 0.2202354915631076 0.2202354915631076 0.2202354915631076 0.2061357443094533 0.2061357443094533 0.2061357443094533 -0.4932043459576155 
-0.4932043459576155 -0.4932043459576155 -0.4746839544479565 -0.4746839544479565 -0.4746839544479565 0.2111345126527122 0.2111345126527122 0.2111345126527122 0.2083587795295339 
0.2083587795295339 0.2083587795295339 0.188112474231866 0.188112474231866 0.188112474231866 0.1689454346000286 0.1689454346000286 0.1689454346000286 0.6084731368112233 
0.6084731368112233 0.6084731368112233 0.6127447635091402 0.6127447635091402 0.6127447635091402 0.7872507024166551 0.7872507024166551 0.7872507024166551 0.786615375852152 
0.786615375852152 0.786615375852152 -0.4915984645917714 -0.4915984645917714 -0.4915984645917714 0.1276231806528894 0.1276231806528894 0.1276231806528894 0.1202345783256606 
0.1202345783256606 0.1202345783256606 -0.7623625714985693 -0.7623625714985693 -0.7623625714985693 -0.7720679767235189 -0.7720679767235189 -0.7720679767235189 -0.7405329919415742 
-0.7405329919415742 -0.7405329919415742 -0.7418776157022722 -0.7418776157022722 -0.7418776157022722 0.05126857423461589 0.05126857423461589 0.05126857423461589 0.0451447221371153 
0.0451447221371153 0.0451447221371153 -0.132565101100351 -0.132565101100351 -0.132565101100351 -0.1319128635514343 -0.1319128635514343 -0.1319128635514343 -0.04176566054163618 
-0.04176566054163618 -0.04176566054163618 -0.04099543180426415 -0.04099543180426415 -0.04099543180426415 0.1605765489811202 0.1605765489811202 0.1605765489811202 0.1821308195941285 
0.1821308195941285 0.1821308195941285 -0.5955670780880975 -0.5955670780880975 -0.5955670780880975 -0.5750501812376456 -0.5750501812376456 -0.5750501812376456 0.5081810443858893 
0.5081810443858893 0.5081810443858893 0.5104794771920317 0.5104794771920317 0.5104794771920317 -0.5700252965356705 -0.5700252965356705 -0.5700252965356705 -0.5662935470688861 
-0.5662935470688861 -0.5662935470688861 0.04494015163954891 0.04494015163954891 0.04494015163954891 0.1334260210305674 0.1334260210305674 0.1334260210305674 0.1272344464653549 
0.1272344464653549 0.1272344464653549 0.313986417650999 0.313986417650999 0.313986417650999 0.3157294497080328 0.3157294497080328 0.3157294497080328 -0.1639201884672963 
-0.1639201884672963 -0.1639201884672963 -0.1715346850667291 -0.1715346850667291 -0.1715346850667291 -0.08162459113481395 -0.08162459113481395 -0.08162459113481395 -0.08997100321579882 
-0.08997100321579882 -0.08997100321579882 0.4095897054540683 0.4095897054540683 0.4095897054540683 0.4192488711821704 0.4192488711821704 0.4192488711821704 0.27606431957988 
0.27606431957988 0.27606431957988 0.1898460872575348 0.1898460872575348 0.1898460872575348 0.2131061295645824 0.2131061295645824 0.2131061295645824 -0.201452405726169 
-0.201452405726169 -0.201452405726169 -0.2081306206854071 -0.2081306206854071 -0.2081306206854071 -0.6497471396392547 -0.6497471396392547 -0.6497471396392547 -0.6430603768330609 
-0.6430603768330609 -0.6430603768330609 -0.6839882347067611 -0.6839882347067611 -0.6839882347067611 -0.6973042339868991 -0.6973042339868991 -0.6973042339868991 -0.2884773359782309 
-0.2884773359782309 -0.2884773359782309 -0.2692181236209695 -0.2692181236209695 -0.2692181236209695 0.6888077156211981 0.6888077156211981 0.6888077156211981 0.6804056278175648 
0.6804056278175648 0.6804056278175648 -0.01112199867329921 -0.01112199867329921 -0.01112199867329921 -0.003022159192360383 -0.003022159192360383 -0.003022159192360383 0.320103874859458 
0.320103874859458 0.320103874859458 0.3129688282274987 0.3129688282274987 0.3129688282274987 0.5630597275441983 0.5630597275441983 0.5630597275441983 0.537911582780044 
0.537911582780044 0.537911582780044 0.1704002360523797 0.1704002360523797 0.1704002360523797 0.1841593648448606 0.1841593648448606 0.1841593648448606 0.2234442434804751 
0.2234442434804751 0.2234442434804751 0.2171573035483594 0.2171573035483594 0.2171573035483594 -0.323259984787505 -0.323259984787505 -0.323259984787505 -0.3291965773058315 
-0.3291965773058315 -0.3291965773058315 0.1310062182186987 0.1310062182186987 0.1310062182186987 0.13763132925979 0.13763132925979 0.13763132925979 -0.06577751885951555 
-0.06577751885951555 -0.06577751885951555 -0.07051164398222116 -0.07051164398222116 -0.07051164398222116 -0.1087817897195008 -0.1087817897195008 -0.1087817897195008 -0.05195656703871111 
-0.05195656703871111 -0.05195656703871111 -0.3222669779521966 -0.3222669779521966 -0.3222669779521966 -0.6881764883216858 -0.6881764883216858 -0.6881764883216858 -0.6688362242691951 
-0.6688362242691951 -0.6688362242691951 -0.1335137962863361 -0.1335137962863361 -0.1335137962863361 -0.1146429618191638 -0.1146429618191638 -0.1146429618191638 0.7815465475957815 
0.7815465475957815 0.7815465475957815 0.7790909640985265 0.7790909640985265 0.7790909640985265 0.002772988594636815 0.002772988594636815 0.002772988594636815 0.0003778392409436671 
0.0003778392409436671 0.0003778392409436671 0.5383213357914469 0.5383213357914469 0.5383213357914469 0.5050546595160482 0.5050546595160482 0.5050546595160482 -0.0237718776712831 
-0.0237718776712831 -0.0237718776712831 -0.05754314947101766 -0.05754314947101766 -0.05754314947101766 -0.4953222299591729 -0.4953222299591729 -0.4953222299591729 -0.466704878597696 
-0.466704878597696 -0.466704878597696 -0.1307088256907929 -0.1307088256907929 -0.1307088256907929 -0.09866974501781717 -0.09866974501781717 -0.09866974501781717 -0.6922572729369374 
-0.6922572729369374 -0.6922572729369374 -0.7084091385862049 -0.7084091385862049 -0.7084091385862049 -0.5258505084883505 -0.5258505084883505 -0.5258505084883505 -0.5616791131414802 
-0.5616791131414802 -0.5616791131414802 0.150378915334567 0.150378915334567 0.150378915334567 0.1868370253374796 0.1868370253374796 0.1868370253374796 -0.02286124968803125 
-0.02286124968803125 -0.02286124968803125 0.00377483260370766 0.00377483260370766 0.00377483260370766 0.4300682465931426 0.4300682465931426 0.4300682465931426 0.4461443458409083 
0.4461443458409083 0.4461443458409083 0.04469998450366076 0.04469998450366076 0.04469998450366076 0.01906991019123008 0.01906991019123008 0.01906991019123008 0.4011137793285383 
0.4011137793285383 0.4011137793285383 0.3976373254467505 0.3976373254467505 0.3976373254467505 0.0305811055928949 0.0305811055928949 0.0305811055928949 0.01299249926541454 
0.01299249926541454 0.01299249926541454 -0.3732334316490933 -0.3732334316490933 -0.3732334316490933 0.1931337690063983 0.1931337690063983 0.1931337690063983 0.1831487859143877 
0.1831487859143877 0.1831487859143877 0.01712234781480554 0.01712234781480554 0.01712234781480554 0.02667829541968763 0.02667829541968763 0.02667829541968763 -0.633981067828882 
-0.633981067828882 -0.633981067828882 -0.6147380996278609 -0.6147380996278609 -0.6147380996278609 -0.2269931126185799 -0.2269931126185799 -0.2269931126185799 -0.1923743271636466 
-0.1923743271636466 -0.1923743271636466 -0.1953554554094923 -0.1953554554094923 -0.1953554554094923 -0.1845460069054524 -0.1845460069054524 -0.1845460069054524 -0.1014831723963891 
-0.1014831723963891 -0.1014831723963891 -0.1047852189766142 -0.1047852189766142 -0.1047852189766142 -0.01618056105908674 -0.01618056105908674 -0.01618056105908674 0.01498579917037082 
0.01498579917037082 0.01498579917037082 0.3706269803869949 0.3706269803869949 0.3706269803869949 0.3769004763256549 0.3769004763256549 0.3769004763256549 -0.5759460284668602 
-0.5759460284668602 -0.5759460284668602 -0.5717335938357997 -0.5717335938357997 -0.5717335938357997 -0.2957766327387697 -0.2957766327387697 -0.2957766327387697 -0.2769472735717043 
-0.2769472735717043 -0.2769472735717043 -0.1239556411047632 -0.1239556411047632 -0.1239556411047632 -0.1304031980208683 -0.1304031980208683 -0.1304031980208683 0.3038170975805869 
0.3038170975805869 0.3038170975805869 0.2776737314214597 0.2776737314214597 0.2776737314214597 0.06535222602581585 0.06535222602581585 0.06535222602581585 0.0784312588316675 
0.0784312588316675 0.0784312588316675 0.6833155164654998 0.6833155164654998 0.6833155164654998 0.6732382724218146 0.6732382724218146 0.6732382724218146 0.1488452544772676 
0.1488452544772676 0.1488452544772676 0.1720983081902293 0.1720983081902293 0.1720983081902293 -0.5685374936649831 -0.5685374936649831 -0.5685374936649831 -0.5460277348813815 
-0.5460277348813815 -0.5460277348813815 -0.60130093955848 -0.60130093955848 -0.60130093955848 -0.6198958728294743 -0.6198958728294743 -0.6198958728294743 0.14558412110431 
0.14558412110431 0.14558412110431 0.1452578820864623 0.1452578820864623 0.1452578820864623 -0.5006399461384026 -0.5006399461384026 -0.5006399461384026 -0.5242264608274558 
-0.5242264608274558 -0.5242264608274558 -0.06877964475673184 -0.06877964475673184 -0.06877964475673184 -0.06130388844984307 -0.06130388844984307 -0.06130388844984307 0.528377864299303 
0.528377864299303 0.528377864299303 0.5116320673730094 0.5116320673730094 0.5116320673730094 0.7342939962707848 0.7342939962707848 0.7342939962707848 0.723869034424353 
0.723869034424353 0.723869034424353 -0.4296297057268048 -0.4296297057268048 -0.4296297057268048 -0.4637659587754535 -0.4637659587754535 -0.4637659587754535 -0.06170124871612112 
-0.06170124871612112 -0.06170124871612112 -0.0908789260760436 -0.0908789260760436 -0.0908789260760436 0.5519463922508567 0.5519463922508567 0.5519463922508567 0.5381051940797359 
0.5381051940797359 0.5381051940797359 -0.1388166794791706 -0.1388166794791706 -0.1388166794791706 -0.1386244022909567 -0.1386244022909567 -0.1386244022909567 0.3486913297485295 
0.3486913297485295 0.3486913297485295 0.3257039067455041 0.3257039067455041 0.3257039067455041 -0.07336898790887275 -0.07336898790887275 -0.07336898790887275 -0.07412811682599306 
-0.07412811682599306 -0.07412811682599306 0.2809643256250213 0.2809643256250213 0.2809643256250213 0.2650509383114799 0.2650509383114799 0.2650509383114799 0.539022438284418 
0.539022438284418 0.539022438284418 0.5261205590212166 0.5261205590212166 0.5261205590212166 -0.2273452693952573 -0.2273452693952573 -0.2273452693952573 -0.2643067179169208 
-0.2643067179169208 -0.2643067179169208 -0.2474439234280242 -0.2474439234280242 -0.2474439234280242 -0.2336785813607535 -0.2336785813607535 -0.2336785813607535 -0.1992789887669073 
-0.1992789887669073 -0.1992789887669073 -0.2285755930680342 -0.2285755930680342 -0.2285755930680342 -0.3093451001303278 -0.3093451001303278 -0.3093451001303278 -0.3296734942335623 
-0.3296734942335623 -0.3296734942335623 -0.1680029696702857 -0.1680029696702857 -0.1680029696702857 -0.189021133330154 -0.189021133330154 -0.189021133330154 0.05877137831879885 
0.05877137831879885 0.05877137831879885 0.05287563874261461 0.05287563874261461 0.05287563874261461 0.207596330201317 0.207596330201317 0.207596330201317 0.1802909300327162 
0.1802909300327162 0.1802909300327162 -0.1176730877880922 -0.1176730877880922 -0.1176730877880922 -0.1430031384447512 -0.1430031384447512 -0.1430031384447512 -0.125600678529811 
-0.125600678529811 -0.125600678529811 -0.1563649160225994 -0.1563649160225994 -0.1563649160225994 0.7014183197878125 0.7014183197878125 0.7014183197878125 0.7133740851161625 
0.7133740851161625 0.7133740851161625 0.1987340941312621 0.1987340941312621 0.1987340941312621 0.1628583361770962 0.1628583361770962 0.1628583361770962 0.6175332613247745 
0.6175332613247745 0.6175332613247745 0.6002226490826368 0.6002226490826368 0.6002226490826368 -0.00139371105293189 -0.00139371105293189 -0.00139371105293189 -0.03347584463797526 
-0.03347584463797526 -0.03347584463797526 0.3294044637932788 0.3294044637932788 0.3294044637932788 0.3036167214854143 0.3036167214854143 0.3036167214854143 0.3075820364689144 
0.3075820364689144 0.3075820364689144 0.316106710232818 0.316106710232818 0.316106710232818 -0.05250545467469723 -0.05250545467469723 -0.05250545467469723 -0.04578945159225224 
-0.04578945159225224 -0.04578945159225224 -0.04848595825068067 -0.04848595825068067 -0.04848595825068067 0.05684794761978022 0.05684794761978022 0.05684794761978022 0.04976047576501608 
0.04976047576501608 0.04976047576501608 0.08185316154293935 0.08185316154293935 0.08185316154293935 -0.6316051515726171 -0.6316051515726171 -0.6316051515726171 -0.6203154929718691 
-0.6203154929718691 -0.6203154929718691 -0.6055776680322063 -0.6055776680322063 -0.6055776680322063 -0.2920193525817845 -0.2920193525817845 -0.2920193525817845 -0.2933009652016699 
-0.2933009652016699 -0.2933009652016699 -0.2709601719549014 -0.2709601719549014 -0.2709601719549014 -0.04986987423052589 -0.04986987423052589 -0.04986987423052589 -0.05120531450864098 
-0.05120531450864098 -0.05120531450864098 -0.06193149139369802 -0.06193149139369802 -0.06193149139369802 -0.2239390327811171 -0.2239390327811171 -0.2239390327811171 -0.2084786256030957 
-0.2084786256030957 -0.2084786256030957 -0.181546114901288 -0.181546114901288 -0.181546114901288 0.7267623570765342 0.7267623570765342 0.7267623570765342 -0.1563404876670806 
-0.1563404876670806 -0.1563404876670806 -0.1817833488254064 -0.1817833488254064 -0.1817833488254064 -0.1838014908813954 -0.1838014908813954 -0.1838014908813954 0.5021096380874424 
0.5021096380874424 0.5021096380874424 0.491492729111533 0.491492729111533 0.491492729111533 0.4532646949770281 0.4532646949770281 0.4532646949770281 -0.2473254357352973 
-0.2473254357352973 -0.2473254357352973 -0.2554526952595322 -0.2554526952595322 -0.2554526952595322 -0.2747221368897068 -0.2747221368897068 -0.2747221368897068 -0.09377110232914465 
-0.09377110232914465 -0.09377110232914465 -0.06409233414195631 -0.06409233414195631 -0.06409233414195631 -0.0486583258103936 -0.0486583258103936 -0.0486583258103936 -0.1940967751217102 
-0.1940967751217102 -0.1940967751217102 -0.1778026578844184 -0.1778026578844184 -0.1778026578844184 -0.1643861568590415 -0.1643861568590415 -0.1643861568590415 -0.5709697245836141 
-0.5709697245836141 -0.5709697245836141 -0.5792443702846738 -0.5792443702846738 -0.5792443702846738 -0.5334547340067193 -0.5334547340067193 -0.5334547340067193 0.1783546463644562 
0.1783546463644562 0.1783546463644562 0.1638119071483232 0.1638119071483232 0.1638119071483232 0.1546632634731378 0.1546632634731378 0.1546632634731378 -0.1658581365738912 
-0.1658581365738912 -0.1658581365738912 -0.1740912037511575 -0.1740912037511575 -0.1740912037511575 -0.1977533707595006 -0.1977533707595006 -0.1977533707595006 -0.2229924789068928 
-0.2229924789068928 -0.2229924789068928 -0.228028091186332 -0.228028091186332 -0.228028091186332 -0.2271822946693175 -0.2271822946693175 -0.2271822946693175 0.01703385758428898 
0.01703385758428898 0.01703385758428898 -0.002374301849483335 -0.002374301849483335 -0.002374301849483335 -0.02319396501087777 -0.02319396501087777 -0.02319396501087777 -0.6808945446996222 
-0.6808945446996222 -0.6808945446996222 -0.6910977986855673 -0.6910977986855673 -0.6910977986855673 -0.6992702507625533 -0.6992702507625533 -0.6992702507625533 0.1500184949361436 
0.1500184949361436 0.1500184949361436 0.1673203697461509 0.1673203697461509 0.1673203697461509 0.1634933002383417 0.1634933002383417 0.1634933002383417 0.3787333136531915 
0.3787333136531915 0.3787333136531915 0.3912744274178027 0.3912744274178027 0.3912744274178027 0.4038443795652114 0.4038443795652114 0.4038443795652114 0.7703779994853854 
0.7703779994853854 0.7703779994853854 0.7760283244786861 0.7760283244786861 0.7760283244786861 0.7807320119314364 0.7807320119314364 0.7807320119314364 0.05789245446231311 
0.05789245446231311 0.05789245446231311 0.05134640532185934 0.05134640532185934 0.05134640532185934 0.04345229751693172 0.04345229751693172 0.04345229751693172 -0.1288431677019412 
-0.1288431677019412 -0.1288431677019412 -0.1195964688471894 -0.1195964688471894 -0.1195964688471894 -0.1091966037833565 -0.1091966037833565 -0.1091966037833565 0.2402050067526185 
0.2402050067526185 0.2402050067526185 0.2351500949886822 0.2351500949886822 0.2351500949886822 0.2240653832302118 0.2240653832302118 0.2240653832302118 -0.6890375260160642 
-0.6890375260160642 -0.6890375260160642 -0.6950161729287399 -0.6950161729287399 -0.6950161729287399 -0.6907931197290181 -0.6907931197290181 -0.6907931197290181 -0.1891122138211866 
-0.1891122138211866 -0.1891122138211866 -0.1696201137484164 -0.1696201137484164 -0.1696201137484164 -0.1588146228133855 -0.1588146228133855 -0.1588146228133855 -0.04581441846691321 
-0.04581441846691321 -0.04581441846691321 -0.07067493989230313 -0.07067493989230313 -0.07067493989230313 -0.07313303910461939 -0.07313303910461939 -0.07313303910461939 -0.3085939079109143 
-0.3085939079109143 -0.3085939079109143 -0.306576411673649 -0.306576411673649 -0.306576411673649 -0.2939800366633099 -0.2939800366633099 -0.2939800366633099 0.1017029164955015 