Title = Triangle100
FileType = Solution
Variables = q
Zone T = Triangle100
ZoneType = FETriangle
Nodes = 99072
Elements = 33024
DataPacking = Block
StrandID = 7
SolutionTime = 0.6000000000000001
0.7713920211043905 0.7713920211043905 0.7713920211043905 0.7893911831066045 0.7893911831066045 0.7893911831066045 0.7913459070206837 0.7913459070206837 0.7913459070206837 0.1856664810719407 
0.1856664810719407 0.1856664810719407 0.1773033402090693 0.1773033402090693 0.1773033402090693 -0.4762926126109419 -0.4762926126109419 -0.4762926126109419 -0.4878496286809162 
-0.4878496286809162 -0.4878496286809162 0.2459604552803171 0.2459604552803171 0.2459604552803171 0.2590504454682462 0.2590504454682462 0.2590504454682462 0.2491607700635987 
0.2491607700635987 0.2491607700635987 0.2448264750729547 0.2448264750729547 0.2448264750729547 -0.5867090412230092 -0.5867090412230092 -0.5867090412230092 -0.5745164401529932 
-0.5745164401529932 -0.5745164401529932 0.06287228403019005 0.06287228403019005 0.06287228403019005 0.05672731014639365 0.05672731014639365 0.05672731014639365 -0.09468288612588843 
-0.09468288612588843 -0.09468288612588843 -0.0753471801726944 -0.0753471801726944 -0.0753471801726944 -0.08934909002541855 -0.08934909002541855 -0.08934909002541855 -0.1063869255185473 
-0.1063869255185473 -0.1063869255185473 -0.6609282858768061 -0.6609282858768061 -0.6609282858768061 -0.6188999609179667 -0.6188999609179667 -0.6188999609179667 -0.6488625881486658 
-0.6488625881486658 -0.6488625881486658 0.08413897596993843 0.08413897596993843 0.08413897596993843 0.08266365160384026 0.08266365160384026 0.08266365160384026 0.3026658708225878 
0.3026658708225878 0.3026658708225878 0.3335645589921684 0.3335645589921684 0.3335645589921684 0.2534576969487491 0.2534576969487491 0.2534576969487491 0.2832515849466483 
0.2832515849466483 0.2832515849466483 -0.7969387908722729 -0.7969387908722729 -0.7969387908722729 -0.7753023631595282 -0.7753023631595282 -0.7753023631595282 0.3864222332802297 
0.3864222332802297 0.3864222332802297 0.3797870605347494 0.3797870605347494 0.3797870605347494 0.3757739732407073 0.3757739732407073 0.3757739732407073 0.2264505637279644 
0.2264505637279644 0.2264505637279644 0.2176217693050705 0.2176217693050705 0.2176217693050705 0.2091082917142393 0.2091082917142393 0.2091082917142393 -0.4268723376488083 
-0.4268723376488083 -0.4268723376488083 -0.4384120389489028 -0.4384120389489028 -0.4384120389489028 -0.3969628012073669 -0.3969628012073669 -0.3969628012073669 -0.618821606239718 
-0.618821606239718 -0.618821606239718 -0.6059961964054812 -0.6059961964054812 -0.6059961964054812 -0.591328162430468 -0.591328162430468 -0.591328162430468 -0.1141684133552983 
-0.1141684133552983 -0.1141684133552983 -0.1276134488277562 -0.1276134488277562 -0.1276134488277562 -0.1380276229456493 -0.1380276229456493 -0.1380276229456493 0.01981174472452864 
0.01981174472452864 0.01981174472452864 0.01742786857480203 0.01742786857480203 0.01742786857480203 0.01721231138975379 0.01721231138975379 0.01721231138975379 -0.183140775455262 
-0.183140775455262 -0.183140775455262 -0.196601024032909 -0.196601024032909 -0.196601024032909 -0.2061482855551305 -0.2061482855551305 -0.2061482855551305 0.2748550762419107 
0.2748550762419107 0.2748550762419107 0.2591367214318927 0.2591367214318927 0.2591367214318927 0.1599781468793482 0.1599781468793482 0.1599781468793482 0.1565537154124532 
0.1565537154124532 0.1565537154124532 0.6267807905310318 0.6267807905310318 0.6267807905310318 0.6592862455947424 0.6592862455947424 0.6592862455947424 0.6788536767786534 
0.6788536767786534 0.6788536767786534 0.690032893270646 0.690032893270646 0.690032893270646 0.6597063473628733 0.6597063473628733 0.6597063473628733 0.6908732334569874 
0.6908732334569874 0.6908732334569874 -0.1261761229671206 -0.1261761229671206 -0.1261761229671206 -0.1143575237928217 -0.1143575237928217 -0.1143575237928217 -0.5039994413210884 
-0.5039994413210884 -0.5039994413210884 -0.5011440348424505 -0.5011440348424505 -0.5011440348424505 0.5176059504096777 0.5176059504096777 0.5176059504096777 0.5203351183700264 
0.5203351183700264 0.5203351183700264 -0.71915872589573 -0.71915872589573 -0.71915872589573 -0.7230290132574395 -0.7230290132574395 -0.7230290132574395 -0.327486619912937 
-0.327486619912937 -0.327486619912937 -0.357425457801166 -0.357425457801166 -0.357425457801166 -0.1057205188702661 -0.1057205188702661 -0.1057205188702661 -0.1039145644779434 
-0.1039145644779434 -0.1039145644779434 -0.77270609315881 -0.77270609315881 -0.77270609315881 -0.7851684649852402 -0.7851684649852402 -0.7851684649852402 0.8254831501682072 
0.8254831501682072 0.8254831501682072 0.8336215076105078 0.8336215076105078 0.8336215076105078 -0.2223738433670248 -0.2223738433670248 -0.2223738433670248 -0.2293202159872413 
-0.2293202159872413 -0.2293202159872413 0.8442441236299574 0.8442441236299574 0.8442441236299574 0.8398186877413429 0.8398186877413429 0.8398186877413429 0.4540208465454488 
0.4540208465454488 0.4540208465454488 0.4695397669531581 0.4695397669531581 0.4695397669531581 -0.6387378577738211 -0.6387378577738211 -0.6387378577738211 -0.6280742677769844 
-0.6280742677769844 -0.6280742677769844 0.3363249587728823 0.3363249587728823 0.3363249587728823 0.3633652569405586 0.3633652569405586 0.3633652569405586 -0.2036797737998917 
-0.2036797737998917 -0.2036797737998917 -0.1931848799959338 -0.1931848799959338 -0.1931848799959338 0.1929027528498324 0.1929027528498324 0.1929027528498324 0.1747424140687057 
0.1747424140687057 0.1747424140687057 -0.001847408116143083 -0.001847408116143083 -0.001847408116143083 0.225734691381517 0.225734691381517 0.225734691381517 0.2494138167030116 
0.2494138167030116 0.2494138167030116 -0.1076494313838902 -0.1076494313838902 -0.1076494313838902 -0.1478898069330029 -0.1478898069330029 -0.1478898069330029 0.1906456251785814 
0.1906456251785814 0.1906456251785814 0.1911953258323872 0.1911953258323872 0.1911953258323872 0.2898153268479169 0.2898153268479169 0.2898153268479169 0.3447552826615879 
0.3447552826615879 0.3447552826615879 0.03531386154449798 0.03531386154449798 0.03531386154449798 0.04363407480645421 0.04363407480645421 0.04363407480645421 -0.3639605089759462 
-0.3639605089759462 -0.3639605089759462 -0.3653507616413076 -0.3653507616413076 -0.3653507616413076 0.2492069705411229 0.2492069705411229 0.2492069705411229 0.2886752169222655 
0.2886752169222655 0.2886752169222655 0.7415940766307789 0.7415940766307789 0.7415940766307789 0.7630232985808791 0.7630232985808791 0.7630232985808791 0.634234646218316 
0.634234646218316 0.634234646218316 0.6548150953488023 0.6548150953488023 0.6548150953488023 -0.2240659966321813 -0.2240659966321813 -0.2240659966321813 -0.2564778747324682 
-0.2564778747324682 -0.2564778747324682 -0.7892088665063494 -0.7892088665063494 -0.7892088665063494 -0.8097371095457564 -0.8097371095457564 -0.8097371095457564 0.8959216286148421 
0.8959216286148421 0.8959216286148421 0.8972500914902588 0.8972500914902588 0.8972500914902588 0.1022941823948689 0.1022941823948689 0.1022941823948689 0.1041982593460658 
0.1041982593460658 0.1041982593460658 0.2990795848583085 0.2990795848583085 0.2990795848583085 0.3074701083145869 0.3074701083145869 0.3074701083145869 0.9131114739915117 
0.9131114739915117 0.9131114739915117 0.9186915976873351 0.9186915976873351 0.9186915976873351 -0.237934982318534 -0.237934982318534 -0.237934982318534 -0.2523456228192813 
-0.2523456228192813 -0.2523456228192813 0.2540309469225289 0.2540309469225289 0.2540309469225289 0.2441564291985509 0.2441564291985509 0.2441564291985509 0.232094299659355 
0.232094299659355 0.232094299659355 -0.02695643303036723 -0.02695643303036723 -0.02695643303036723 -0.004435118558098962 -0.004435118558098962 -0.004435118558098962 0.009609272358864978 
0.009609272358864978 0.009609272358864978 -0.3412616781401393 -0.3412616781401393 -0.3412616781401393 -0.3553727191010528 -0.3553727191010528 -0.3553727191010528 -0.36689811022734 
-0.36689811022734 -0.36689811022734 0.9072520240219168 0.9072520240219168 0.9072520240219168 0.9054212231664527 0.9054212231664527 0.9054212231664527 0.9045353756989063 
0.9045353756989063 0.9045353756989063 -0.17765353168489 -0.17765353168489 -0.17765353168489 -0.1712744128532999 -0.1712744128532999 -0.1712744128532999 -0.1792933266057063 
-0.1792933266057063 -0.1792933266057063 -0.6431230527571409 -0.6431230527571409 -0.6431230527571409 -0.6209676391545166 -0.6209676391545166 -0.6209676391545166 0.8074810339813606 
0.8074810339813606 0.8074810339813606 0.8128594125457155 0.8128594125457155 0.8128594125457155 0.8300083329789191 0.8300083329789191 0.8300083329789191 0.05000512965053134 
0.05000512965053134 0.05000512965053134 0.04387433299280238 0.04387433299280238 0.04387433299280238 0.04640652984703389 0.04640652984703389 0.04640652984703389 -0.7022780263753827 
-0.7022780263753827 -0.7022780263753827 -0.7132501621992022 -0.7132501621992022 -0.7132501621992022 -0.7178392580717194 -0.7178392580717194 -0.7178392580717194 0.4456589633380307 
0.4456589633380307 0.4456589633380307 0.4607021953522231 0.4607021953522231 0.4607021953522231 0.4412451831528786 0.4412451831528786 0.4412451831528786 -0.1907225623389654 
-0.1907225623389654 -0.1907225623389654 -0.2026265117622808 -0.2026265117622808 -0.2026265117622808 -0.2177469142940583 -0.2177469142940583 -0.2177469142940583 0.6728477834977188 
0.6728477834977188 0.6728477834977188 0.6938532090111124 0.6938532090111124 0.6938532090111124 0.6929837378614849 0.6929837378614849 0.6929837378614849 -0.1538393181204798 
-0.1538393181204798 -0.1538393181204798 -0.1547496806554484 -0.1547496806554484 -0.1547496806554484 -0.1521773260219171 -0.1521773260219171 -0.1521773260219171 0.222973142176104 
0.222973142176104 0.222973142176104 0.2124263012731006 0.2124263012731006 0.2124263012731006 0.193089436740979 0.193089436740979 0.193089436740979 0.1836313350776354 
0.1836313350776354 0.1836313350776354 0.169651023514329 0.169651023514329 0.169651023514329 -0.7492325418023006 -0.7492325418023006 -0.7492325418023006 -0.7544019808259292 
-0.7544019808259292 -0.7544019808259292 0.1546271611752626 0.1546271611752626 0.1546271611752626 0.172848865903298 0.172848865903298 0.172848865903298 -0.4986443990231067 
-0.4986443990231067 -0.4986443990231067 -0.4991275352011689 -0.4991275352011689 -0.4991275352011689 0.03215186937220172 0.03215186937220172 0.03215186937220172 0.02511023425796626 
0.02511023425796626 0.02511023425796626 0.1221996691818193 0.1221996691818193 0.1221996691818193 0.117618149704509 0.117618149704509 0.117618149704509 -0.3182706786266896 
-0.3182706786266896 -0.3182706786266896 -0.3340560483522619 -0.3340560483522619 -0.3340560483522619 0.5380230144238178 0.5380230144238178 0.5380230144238178 0.5393259610824767 
0.5393259610824767 0.5393259610824767 0.166625938463 0.166625938463 0.166625938463 0.1656373902400429 0.1656373902400429 0.1656373902400429 0.6223939851514665 
0.6223939851514665 0.6223939851514665 0.6002396260912595 0.6002396260912595 0.6002396260912595 0.2239890665252994 0.2239890665252994 0.2239890665252994 0.2067377392473003 
0.2067377392473003 0.2067377392473003 -0.02197775242616407 -0.02197775242616407 -0.02197775242616407 -0.04885752443730383 -0.04885752443730383 -0.04885752443730383 0.5607173403741521 
0.5607173403741521 0.5607173403741521 0.5749740287006114 0.5749740287006114 0.5749740287006114 -0.9022842970533312 -0.9022842970533312 -0.9022842970533312 -0.9073605381679244 
-0.9073605381679244 -0.9073605381679244 0.913359033934234 0.913359033934234 0.913359033934234 0.911762981116617 0.911762981116617 0.911762981116617 0.2828348369122983 
0.2828348369122983 0.2828348369122983 0.2866320612629442 0.2866320612629442 0.2866320612629442 0.3865956250174192 0.3865956250174192 0.3865956250174192 0.3772705209077276 
0.3772705209077276 0.3772705209077276 0.3710868594578275 0.3710868594578275 0.3710868594578275 0.3674046369720443 0.3674046369720443 0.3674046369720443 -0.173936918394817 
-0.173936918394817 -0.173936918394817 -0.1563871909346952 -0.1563871909346952 -0.1563871909346952 0.03890474700151345 0.03890474700151345 0.03890474700151345 0.05906254726694396 
0.05906254726694396 0.05906254726694396 -0.1051338608810407 -0.1051338608810407 -0.1051338608810407 -0.05741214133795942 -0.05741214133795942 -0.05741214133795942 0.622850753616492 
0.622850753616492 0.622850753616492 0.6133354120071144 0.6133354120071144 0.6133354120071144 0.5005634340902159 0.5005634340902159 0.5005634340902159 0.5112969254010349 
0.5112969254010349 0.5112969254010349 0.2720360005281243 0.2720360005281243 0.2720360005281243 0.2773579465747393 0.2773579465747393 0.2773579465747393 0.6065370261368395 
0.6065370261368395 0.6065370261368395 0.6139186103480045 0.6139186103480045 0.6139186103480045 0.4343401233412011 0.4343401233412011 0.4343401233412011 0.4447052126900994 
0.4447052126900994 0.4447052126900994 -0.1555945163513539 -0.1555945163513539 -0.1555945163513539 -0.1800259542738129 -0.1800259542738129 -0.1800259542738129 0.4303101946524172 
0.4303101946524172 0.4303101946524172 0.3962112417734958 0.3962112417734958 0.3962112417734958 0.5052295929662722 0.5052295929662722 0.5052295929662722 0.488991726453568 
0.488991726453568 0.488991726453568 -0.7377975362955107 -0.7377975362955107 -0.7377975362955107 -0.7520509273012725 -0.7520509273012725 -0.7520509273012725 -0.3866896597004966 
-0.3866896597004966 -0.3866896597004966 -0.3920247411050184 -0.3920247411050184 -0.3920247411050184 -0.4706582386943655 -0.4706582386943655 -0.4706582386943655 -0.4961202607352116 
-0.4961202607352116 -0.4961202607352116 -0.1110008098529711 -0.1110008098529711 -0.1110008098529711 -0.09538696097014895 -0.09538696097014895 -0.09538696097014895 -0.296023509173905 
-0.296023509173905 -0.296023509173905 -0.2857462713592403 -0.2857462713592403 -0.2857462713592403 0.2411612714157289 0.2411612714157289 0.2411612714157289 0.2436648429154977 
0.2436648429154977 0.2436648429154977 -0.393483427588858 -0.393483427588858 -0.393483427588858 -0.7651359880431389 -0.7651359880431389 -0.7651359880431389 -0.7762616453132949 
-0.7762616453132949 -0.7762616453132949 -0.4032435171603768 -0.4032435171603768 -0.4032435171603768 -0.3691378814317584 -0.3691378814317584 -0.3691378814317584 -0.4659557278200478 
-0.4659557278200478 -0.4659557278200478 -0.4661243624227627 -0.4661243624227627 -0.4661243624227627 0.1990182511057062 0.1990182511057062 0.1990182511057062 0.2049910129166016 
0.2049910129166016 0.2049910129166016 -0.8337281479608901 -0.8337281479608901 -0.8337281479608901 -0.821364562236325 -0.821364562236325 -0.821364562236325 -0.8257978909645252 
-0.8257978909645252 -0.8257978909645252 -0.8154385721594257 -0.8154385721594257 -0.8154385721594257 0.733485007547434 0.733485007547434 0.733485007547434 0.7415775378111845 
0.7415775378111845 0.7415775378111845 -0.5116560168322731 -0.5116560168322731 -0.5116560168322731 -0.5304692108910056 -0.5304692108910056 -0.5304692108910056 -0.1485939957169638 
-0.1485939957169638 -0.1485939957169638 -0.1574685577949136 -0.1574685577949136 -0.1574685577949136 -0.4525170893552849 -0.4525170893552849 -0.4525170893552849 -0.4311169642653593 
-0.4311169642653593 -0.4311169642653593 -0.6345268667678683 -0.6345268667678683 -0.6345268667678683 0.02233817705056982 0.02233817705056982 0.02233817705056982 0.007603890890649488 
0.007603890890649488 0.007603890890649488 -0.1501425683334242 -0.1501425683334242 -0.1501425683334242 -0.1508764538305737 -0.1508764538305737 -0.1508764538305737 -0.4034510805598882 
-0.4034510805598882 -0.4034510805598882 -0.4214752937309619 -0.4214752937309619 -0.4214752937309619 0.3007342839895731 0.3007342839895731 0.3007342839895731 0.2824144767972505 
0.2824144767972505 0.2824144767972505 0.6885292800355938 0.6885292800355938 0.6885292800355938 0.6655205578411987 0.6655205578411987 0.6655205578411987 -0.1855017467102084 
-0.1855017467102084 -0.1855017467102084 0.04920569410858576 0.04920569410858576 0.04920569410858576 0.03576916292382756 0.03576916292382756 0.03576916292382756 -0.928382665463464 
-0.928382665463464 -0.928382665463464 -0.9280556373796972 -0.9280556373796972 -0.9280556373796972 -0.4245005474778059 -0.4245005474778059 -0.4245005474778059 -0.4091811947024149 
-0.4091811947024149 -0.4091811947024149 -0.06615949264115631 -0.06615949264115631 -0.06615949264115631 -0.07331378199809335 -0.07331378199809335 -0.07331378199809335 0.5874816672886845 
0.5874816672886845 0.5874816672886845 0.6216747070690145 0.6216747070690145 0.6216747070690145 0.2479589231017078 0.2479589231017078 0.2479589231017078 0.2415939777660268 
0.2415939777660268 0.2415939777660268 -0.445196150499734 -0.445196150499734 -0.445196150499734 -0.4269083082508727 -0.4269083082508727 -0.4269083082508727 0.5481951606745776 
0.5481951606745776 0.5481951606745776 0.5347108445175399 0.5347108445175399 0.5347108445175399 -0.006363886640467811 -0.006363886640467811 -0.006363886640467811 -0.01022190768139909 
-0.01022190768139909 -0.01022190768139909 -0.7734902945564313 -0.7734902945564313 -0.7734902945564313 -0.7595749072756686 -0.7595749072756686 -0.7595749072756686 0.7561623268678248 
0.7561623268678248 0.7561623268678248 0.7450514576096589 0.7450514576096589 0.7450514576096589 -0.793209576192742 -0.793209576192742 -0.793209576192742 -0.8018043381180223 
-0.8018043381180223 -0.8018043381180223 -0.3965172876498771 -0.3965172876498771 -0.3965172876498771 -0.3812932814482555 -0.3812932814482555 -0.3812932814482555 0.4951376640105836 
0.4951376640105836 0.4951376640105836 0.514521021654274 0.514521021654274 0.514521021654274 0.4419921130630047 0.4419921130630047 0.4419921130630047 0.403279996575337 
0.403279996575337 0.403279996575337 0.104879700687157 0.104879700687157 0.104879700687157 0.1638646300322155 0.1638646300322155 0.1638646300322155 0.2022229066617579 
0.2022229066617579 0.2022229066617579 0.1192450114713646 0.1192450114713646 0.1192450114713646 0.139402492226767 0.139402492226767 0.139402492226767 0.306568419220909 
0.306568419220909 0.306568419220909 0.302104728337497 0.302104728337497 0.302104728337497 -0.1797126536278002 -0.1797126536278002 -0.1797126536278002 -0.2052653463787993 
-0.2052653463787993 -0.2052653463787993 -0.2091993464613711 -0.2091993464613711 -0.2091993464613711 -0.2079039340901743 -0.2079039340901743 -0.2079039340901743 -0.5940397274151865 
-0.5940397274151865 -0.5940397274151865 -0.6346817349370628 -0.6346817349370628 -0.6346817349370628 -0.4539105314455266 -0.4539105314455266 -0.4539105314455266 -0.4718906018571927 
-0.4718906018571927 -0.4718906018571927 0.3536602273183985 0.3536602273183985 0.3536602273183985 0.3914522842923235 0.3914522842923235 0.3914522842923235 -0.2883539918838115 
-0.2883539918838115 -0.2883539918838115 -0.2782622492084571 -0.2782622492084571 -0.2782622492084571 0.3786919924055586 0.3786919924055586 0.3786919924055586 0.3407351905595725 
0.3407351905595725 0.3407351905595725 0.6350776143831998 0.6350776143831998 0.6350776143831998 0.6306462599641747 0.6306462599641747 0.6306462599641747 -0.6007477158355413 
-0.6007477158355413 -0.6007477158355413 -0.5908892316348198 -0.5908892316348198 -0.5908892316348198 0.7508774301318112 0.7508774301318112 0.7508774301318112 0.7219098815515081 
0.7219098815515081 0.7219098815515081 -0.2228772239879062 -0.2228772239879062 -0.2228772239879062 -0.2091923841569094 -0.2091923841569094 -0.2091923841569094 0.8386252257245359 
0.8386252257245359 0.8386252257245359 0.8513767600194471 0.8513767600194471 0.8513767600194471 0.9029838988185005 0.9029838988185005 0.9029838988185005 0.8917104988197515 
0.8917104988197515 0.8917104988197515 0.3830461064095637 0.3830461064095637 0.3830461064095637 -0.2943680469755836 -0.2943680469755836 -0.2943680469755836 -0.3023979766478757 
-0.3023979766478757 -0.3023979766478757 -0.2621546725187325 -0.2621546725187325 -0.2621546725187325 -0.2626677379084178 -0.2626677379084178 -0.2626677379084178 -0.5370207055426263 
-0.5370207055426263 -0.5370207055426263 -0.5478183689967319 -0.5478183689967319 -0.5478183689967319 0.06662606650469263 0.06662606650469263 0.06662606650469263 0.06169714813019032 
0.06169714813019032 0.06169714813019032 -0.7415570639565888 -0.7415570639565888 -0.7415570639565888 -0.7665286356574921 -0.7665286356574921 -0.7665286356574921 0.1457357558354985 
0.1457357558354985 0.1457357558354985 0.1810463267528857 0.1810463267528857 0.1810463267528857 0.8873915994900361 0.8873915994900361 0.8873915994900361 0.9035181670629205 
0.9035181670629205 0.9035181670629205 -0.05215271182813462 -0.05215271182813462 -0.05215271182813462 -0.02290977740813144 -0.02290977740813144 -0.02290977740813144 -0.6925158021408684 
-0.6925158021408684 -0.6925158021408684 -0.7113208937154065 -0.7113208937154065 -0.7113208937154065 0.1423938737366992 0.1423938737366992 0.1423938737366992 0.1133692451688441 
0.1133692451688441 0.1133692451688441 0.4051023360507444 0.4051023360507444 0.4051023360507444 0.3998442750584621 0.3998442750584621 0.3998442750584621 -0.6838498288220732 
-0.6838498288220732 -0.6838498288220732 -0.7112639732051932 -0.7112639732051932 -0.7112639732051932 -0.1371838614858225 -0.1371838614858225 -0.1371838614858225 -0.1081208824814402 
-0.1081208824814402 -0.1081208824814402 0.3766766143467539 0.3766766143467539 0.3766766143467539 0.3527819242165405 0.3527819242165405 0.3527819242165405 -0.36643391548028 
-0.36643391548028 -0.36643391548028 -0.3217128499460248 -0.3217128499460248 -0.3217128499460248 0.1126193524027883 0.1126193524027883 0.1126193524027883 0.1267663712607094 
0.1267663712607094 0.1267663712607094 -0.6360570989243866 -0.6360570989243866 -0.6360570989243866 -0.6129349533902909 -0.6129349533902909 -0.6129349533902909 -0.3579274245001188 
-0.3579274245001188 -0.3579274245001188 -0.3656224479782486 -0.3656224479782486 -0.3656224479782486 0.4446288518194036 0.4446288518194036 0.4446288518194036 0.4098695163776361 
0.4098695163776361 0.4098695163776361 0.4148842856185944 0.4148842856185944 0.4148842856185944 0.435949524955271 0.435949524955271 0.435949524955271 0.1315733990211557 
0.1315733990211557 0.1315733990211557 0.0889455285909429 0.0889455285909429 0.0889455285909429 0.3246697775858359 0.3246697775858359 0.3246697775858359 0.3029584931659994 
0.3029584931659994 0.3029584931659994 0.02582193274860073 0.02582193274860073 0.02582193274860073 0.01973843847399787 0.01973843847399787 0.01973843847399787 0.8655360977737879 
0.8655360977737879 0.8655360977737879 0.8456592888558069 0.8456592888558069 0.8456592888558069 0.7559924771127429 0.7559924771127429 0.7559924771127429 0.7674749679492728 
0.7674749679492728 0.7674749679492728 -0.3255804181094303 -0.3255804181094303 -0.3255804181094303 -0.3707794749675422 -0.3707794749675422 -0.3707794749675422 0.3811071087233882 
0.3811071087233882 0.3811071087233882 0.3543300603051259 0.3543300603051259 0.3543300603051259 0.6044840133887432 0.6044840133887432 0.6044840133887432 0.5752733221984101 
0.5752733221984101 0.5752733221984101 0.9010971768801169 0.9010971768801169 0.9010971768801169 0.8966156947008168 0.8966156947008168 0.8966156947008168 -0.4083217770670183 
-0.4083217770670183 -0.4083217770670183 -0.4325817364909413 -0.4325817364909413 -0.4325817364909413 -0.9165542059104391 -0.9165542059104391 -0.9165542059104391 -0.9101571126911938 
-0.9101571126911938 -0.9101571126911938 -0.0245820486408547 -0.0245820486408547 -0.0245820486408547 -0.03475138352387496 -0.03475138352387496 -0.03475138352387496 0.2970486686569699 
0.2970486686569699 0.2970486686569699 0.2557542340638567 0.2557542340638567 0.2557542340638567 0.08196520403584447 0.08196520403584447 0.08196520403584447 0.07092570486453806 
0.07092570486453806 0.07092570486453806 -0.0480670605175948 -0.0480670605175948 -0.0480670605175948 -0.04088922222223154 -0.04088922222223154 -0.04088922222223154 -0.1946020069952195 
-0.1946020069952195 -0.1946020069952195 -0.1566085700071808 -0.1566085700071808 -0.1566085700071808 0.4727124204957546 0.4727124204957546 0.4727124204957546 0.4781808968073711 
0.4781808968073711 0.4781808968073711 0.2472893960015926 0.2472893960015926 0.2472893960015926 0.2462652597759505 0.2462652597759505 0.2462652597759505 -0.4721674221404102 
-0.4721674221404102 -0.4721674221404102 -0.5055014810830267 -0.5055014810830267 -0.5055014810830267 0.147648339019705 0.147648339019705 0.147648339019705 0.1430833058287326 
0.1430833058287326 0.1430833058287326 -0.7081097573074652 -0.7081097573074652 -0.7081097573074652 -0.7177914536637716 -0.7177914536637716 -0.7177914536637716 0.1612789300391873 
0.1612789300391873 0.1612789300391873 0.1672411218542368 0.1672411218542368 0.1672411218542368 -0.5534528948675621 -0.5534528948675621 -0.5534528948675621 -0.5780884164413668 
-0.5780884164413668 -0.5780884164413668 0.5677432197462171 0.5677432197462171 0.5677432197462171 0.5829448535849766 0.5829448535849766 0.5829448535849766 0.6000264376302824 
0.6000264376302824 0.6000264376302824 0.6157770797121229 0.6157770797121229 0.6157770797121229 0.4056634002579732 0.4056634002579732 0.4056634002579732 0.3882352840336655 
0.3882352840336655 0.3882352840336655 0.3973010090301781 0.3973010090301781 0.3973010090301781 -0.5040525715289184 -0.5040525715289184 -0.5040525715289184 -0.5232672351524807 
-0.5232672351524807 -0.5232672351524807 -0.5200159779885483 -0.5200159779885483 -0.5200159779885483 -0.4135352290169589 -0.4135352290169589 -0.4135352290169589 -0.4052713932509266 
-0.4052713932509266 -0.4052713932509266 -0.4472390570626588 -0.4472390570626588 -0.4472390570626588 -0.2164479465722941 -0.2164479465722941 -0.2164479465722941 -0.2421360388432734 
-0.2421360388432734 -0.2421360388432734 -0.2560572153449687 -0.2560572153449687 -0.2560572153449687 0.2784049439318546 0.2784049439318546 0.2784049439318546 0.2622339403783555 
0.2622339403783555 0.2622339403783555 0.2726899106370652 0.2726899106370652 0.2726899106370652 0.7304250467261653 0.7304250467261653 0.7304250467261653 0.7356091089337681 
0.7356091089337681 0.7356091089337681 0.7667724210113389 0.7667724210113389 0.7667724210113389 0.143032811214124 0.143032811214124 0.143032811214124 0.2658671004766252 
0.2658671004766252 0.2658671004766252 0.2585314867939236 0.2585314867939236 0.2585314867939236 0.2434224665604365 0.2434224665604365 0.2434224665604365 -0.3529443775620188 
-0.3529443775620188 -0.3529443775620188 -0.3741446234494992 -0.3741446234494992 -0.3741446234494992 -0.3911530048434966 -0.3911530048434966 -0.3911530048434966 0.1050492616549383 
0.1050492616549383 0.1050492616549383 0.08656888106198574 0.08656888106198574 0.08656888106198574 0.1009684349439026 0.1009684349439026 0.1009684349439026 0.8474905420423233 
0.8474905420423233 0.8474905420423233 0.8652288277467584 0.8652288277467584 0.8652288277467584 0.8671996573557994 0.8671996573557994 0.8671996573557994 -0.6140584992550518 
-0.6140584992550518 -0.6140584992550518 -0.614086752636217 -0.614086752636217 -0.614086752636217 -0.5981784993155752 -0.5981784993155752 -0.5981784993155752 -0.7229121438902752 
-0.7229121438902752 -0.7229121438902752 -0.6967746614433972 -0.6967746614433972 -0.6967746614433972 -0.735011495135554 -0.735011495135554 -0.735011495135554 -0.3232482275077241 
-0.3232482275077241 -0.3232482275077241 -0.3466473632811593 -0.3466473632811593 -0.3466473632811593 -0.3614256193052096 -0.3614256193052096 -0.3614256193052096 -0.1116916589718097 
-0.1116916589718097 -0.1116916589718097 -0.1327346514151325 -0.1327346514151325 -0.1327346514151325 -0.1107079774401128 -0.1107079774401128 -0.1107079774401128 0.158820623279258 
0.158820623279258 0.158820623279258 0.1408526396162165 0.1408526396162165 0.1408526396162165 0.1235804289111217 0.1235804289111217 0.1235804289111217 0.8819407248415687 
0.8819407248415687 0.8819407248415687 0.8836355779454739 0.8836355779454739 0.8836355779454739 0.8808897984167593 0.8808897984167593 0.8808897984167593 -0.1401608749528575 
-0.1401608749528575 -0.1401608749528575 -0.1489256617691411 -0.1489256617691411 -0.1489256617691411 -0.1525113774184746 -0.1525113774184746 -0.1525113774184746 0.02983679576979507 
0.02983679576979507 0.02983679576979507 0.02339914816706875 0.02339914816706875 0.02339914816706875 0.03528600317086003 0.03528600317086003 0.03528600317086003 -0.05636401990109961 
-0.05636401990109961 -0.05636401990109961 -0.04130935270833443 -0.04130935270833443 -0.04130935270833443 -0.0197002730647944 -0.0197002730647944 -0.0197002730647944 0.1230952914421622 
0.1230952914421622 0.1230952914421622 0.134399419523853 0.134399419523853 0.134399419523853 0.156035869665136 0.156035869665136 0.156035869665136 -0.3334559805750795 
-0.3334559805750795 -0.3334559805750795 -0.3338983624775034 -0.3338983624775034 -0.3338983624775034 -0.3277139645497862 -0.3277139645497862 -0.3277139645497862 0.4377211604683537 
0.4377211604683537 0.4377211604683537 0.4311945549630061 0.4311945549630061 0.4311945549630061 0.4272753165378487 0.4272753165378487 0.4272753165378487 -0.5830655178538779 
-0.5830655178538779 -0.5830655178538779 -0.5947355159044942 -0.5947355159044942 -0.5947355159044942 -0.61511150156048 -0.61511150156048 -0.61511150156048 -0.5789294535878871 
-0.5789294535878871 -0.5789294535878871 -0.5642789447710342 -0.5642789447710342 -0.5642789447710342 -0.5680111404513561 -0.5680111404513561 -0.5680111404513561 0.3090794752145291 
0.3090794752145291 0.3090794752145291 0.2929278827847185 0.2929278827847185 0.2929278827847185 0.2933919714789717 0.2933919714789717 0.2933919714789717 0.1209410855099605 
0.1209410855099605 0.1209410855099605 0.1380973956145397 0.1380973956145397 0.1380973956145397 0.1196114516231734 0.1196114516231734 0.1196114516231734 0.3914834095287625 
0.3914834095287625 0.3914834095287625 0.4368435835925872 0.4368435835925872 0.4368435835925872 0.440367409083716 0.440367409083716 0.440367409083716 0.1390240973238129 
0.1390240973238129 0.1390240973238129 0.157849132568999 0.157849132568999 0.157849132568999 0.1617536667547769 0.1617536667547769 0.1617536667547769 -0.1310853129358629 