Title = Triangle100
FileType = Solution
Variables = q
Zone T = Triangle100
ZoneType = FETriangle
Nodes = 99072
Elements = 33024
DataPacking = Block
StrandID = 5
SolutionTime = 0.4
0.1589708769606532 0.1589708769606532 0.1589708769606532 0.1732883724265506 0.1732883724265506 0.1732883724265506 0.1825380808422431 0.1825380808422431 0.1825380808422431 0.9377803762525558 
0.9377803762525558 0.9377803762525558 0.942393504049751 0.942393504049751 0.942393504049751 -0.7509383860308485 -0.7509383860308485 -0.7509383860308485 -0.7327282986313002 
-0.7327282986313002 -0.7327282986313002 -0.1263503707410463 -0.1263503707410463 -0.1263503707410463 -0.1307450214198722 -0.1307450214198722 -0.1307450214198722 -0.05151858835685083 
-0.05151858835685083 -0.05151858835685083 -0.04331825821090823 -0.04331825821090823 -0.04331825821090823 0.3866231658450182 0.3866231658450182 0.3866231658450182 0.4135568711706569 
0.4135568711706569 0.4135568711706569 0.7040586149608465 0.7040586149608465 0.7040586149608465 0.6953119537743475 0.6953119537743475 0.6953119537743475 -0.8986823515200025 
-0.8986823515200025 -0.8986823515200025 -0.8940429057748853 -0.8940429057748853 -0.8940429057748853 0.8556754663565511 0.8556754663565511 0.8556754663565511 0.8477310466504796 
0.8477310466504796 0.8477310466504796 -0.4697631319038874 -0.4697631319038874 -0.4697631319038874 -0.5128289869411575 -0.5128289869411575 -0.5128289869411575 -0.5457005266113673 
-0.5457005266113673 -0.5457005266113673 0.0969061994832274 0.0969061994832274 0.0969061994832274 0.128114857736124 0.128114857736124 0.128114857736124 -0.0738743596081777 
-0.0738743596081777 -0.0738743596081777 -0.07515895869748308 -0.07515895869748308 -0.07515895869748308 -0.1924147481388822 -0.1924147481388822 -0.1924147481388822 -0.2224381090198343 
-0.2224381090198343 -0.2224381090198343 -0.007247860325715724 -0.007247860325715724 -0.007247860325715724 -0.003615430278916809 -0.003615430278916809 -0.003615430278916809 -0.0669823443219527 
-0.0669823443219527 -0.0669823443219527 -0.04452089835593667 -0.04452089835593667 -0.04452089835593667 -0.03031161208948493 -0.03031161208948493 -0.03031161208948493 0.1350492188156179 
0.1350492188156179 0.1350492188156179 0.154895633504782 0.154895633504782 0.154895633504782 0.1625588245113624 0.1625588245113624 0.1625588245113624 -0.4505854231671225 
-0.4505854231671225 -0.4505854231671225 -0.4411655317564845 -0.4411655317564845 -0.4411655317564845 -0.4640593732162923 -0.4640593732162923 -0.4640593732162923 0.387817267203251 
0.387817267203251 0.387817267203251 0.3918339722586963 0.3918339722586963 0.3918339722586963 0.402334938086223 0.402334938086223 0.402334938086223 -0.932017119879709 
-0.932017119879709 -0.932017119879709 -0.936025400182381 -0.936025400182381 -0.936025400182381 -0.940340405192257 -0.940340405192257 -0.940340405192257 -0.5642611797744497 
-0.5642611797744497 -0.5642611797744497 -0.5476374390631057 -0.5476374390631057 -0.5476374390631057 -0.5353025543514005 -0.5353025543514005 -0.5353025543514005 0.02506842542851517 
0.02506842542851517 0.02506842542851517 0.03236631415153106 0.03236631415153106 0.03236631415153106 0.06918174320403321 0.06918174320403321 0.06918174320403321 -0.1692747530072776 
-0.1692747530072776 -0.1692747530072776 -0.1803283771402538 -0.1803283771402538 -0.1803283771402538 -0.3795899928863541 -0.3795899928863541 -0.3795899928863541 -0.3553284783504841 
-0.3553284783504841 -0.3553284783504841 -0.3218375554821304 -0.3218375554821304 -0.3218375554821304 -0.2898161828715715 -0.2898161828715715 -0.2898161828715715 0.6979396367892345 
0.6979396367892345 0.6979396367892345 0.6763330336514746 0.6763330336514746 0.6763330336514746 -0.06862450938926359 -0.06862450938926359 -0.06862450938926359 -0.07260577255582529 
-0.07260577255582529 -0.07260577255582529 -0.7667883767137244 -0.7667883767137244 -0.7667883767137244 -0.7441863031005223 -0.7441863031005223 -0.7441863031005223 -0.07892214558900437 
-0.07892214558900437 -0.07892214558900437 -0.06545648724643797 -0.06545648724643797 -0.06545648724643797 0.003890659039178018 0.003890659039178018 0.003890659039178018 -0.002765741899979997 
-0.002765741899979997 -0.002765741899979997 -0.1048601450348669 -0.1048601450348669 -0.1048601450348669 -0.1119189352217517 -0.1119189352217517 -0.1119189352217517 -0.8241025270280586 
-0.8241025270280586 -0.8241025270280586 -0.828231815311909 -0.828231815311909 -0.828231815311909 0.4363529735792487 0.4363529735792487 0.4363529735792487 0.4206187061603823 
0.4206187061603823 0.4206187061603823 -0.09427615339160678 -0.09427615339160678 -0.09427615339160678 -0.1132393464963346 -0.1132393464963346 -0.1132393464963346 0.4752739719525102 
0.4752739719525102 0.4752739719525102 0.4557999608613185 0.4557999608613185 0.4557999608613185 -0.01462822499794593 -0.01462822499794593 -0.01462822499794593 -0.005134000006675932 
-0.005134000006675932 -0.005134000006675932 0.305052533275549 0.305052533275549 0.305052533275549 0.3237428086943311 0.3237428086943311 0.3237428086943311 0.9138091064175435 
0.9138091064175435 0.9138091064175435 0.9079210000700378 0.9079210000700378 0.9079210000700378 -0.4815079296918316 -0.4815079296918316 -0.4815079296918316 -0.4987583088168097 
-0.4987583088168097 -0.4987583088168097 -0.0413976672389792 -0.0413976672389792 -0.0413976672389792 -0.06362801110471443 -0.06362801110471443 -0.06362801110471443 -0.8428564329854566 
-0.8428564329854566 -0.8428564329854566 -0.840772827702422 -0.840772827702422 -0.840772827702422 0.9460572478327645 0.9460572478327645 0.9460572478327645 0.9469389572987972 
0.9469389572987972 0.9469389572987972 0.3231672090537269 0.3231672090537269 0.3231672090537269 -0.1466502785308104 -0.1466502785308104 -0.1466502785308104 -0.09298242295349721 
-0.09298242295349721 -0.09298242295349721 0.8412639024228048 0.8412639024228048 0.8412639024228048 0.8231672787248598 0.8231672787248598 0.8231672787248598 0.9227823878091722 
0.9227823878091722 0.9227823878091722 0.9079838598556248 0.9079838598556248 0.9079838598556248 -0.1585197121233853 -0.1585197121233853 -0.1585197121233853 -0.1041061729617686 
-0.1041061729617686 -0.1041061729617686 0.64088303665594 0.64088303665594 0.64088303665594 0.666775595688527 0.666775595688527 0.666775595688527 -0.4540123626408811 
-0.4540123626408811 -0.4540123626408811 -0.498775767393125 -0.498775767393125 -0.498775767393125 -0.1938492289167504 -0.1938492289167504 -0.1938492289167504 -0.148206869013199 
-0.148206869013199 -0.148206869013199 0.1098401922678826 0.1098401922678826 0.1098401922678826 0.1329720083266887 0.1329720083266887 0.1329720083266887 0.1802404778868421 
0.1802404778868421 0.1802404778868421 0.2012669148164695 0.2012669148164695 0.2012669148164695 -0.9517990325412909 -0.9517990325412909 -0.9517990325412909 -0.9521302559048734 
-0.9521302559048734 -0.9521302559048734 0.02229013118329002 0.02229013118329002 0.02229013118329002 0.02247209127062107 0.02247209127062107 0.02247209127062107 0.3550249183993497 
0.3550249183993497 0.3550249183993497 0.3941680343426969 0.3941680343426969 0.3941680343426969 -0.2572340671873591 -0.2572340671873591 -0.2572340671873591 -0.2927911741313073 
-0.2927911741313073 -0.2927911741313073 -0.137299979561002 -0.137299979561002 -0.137299979561002 -0.1604259393331187 -0.1604259393331187 -0.1604259393331187 0.3343298703109219 
0.3343298703109219 0.3343298703109219 0.3434077132668119 0.3434077132668119 0.3434077132668119 0.1053080919579564 0.1053080919579564 0.1053080919579564 0.07801055926034607 
0.07801055926034607 0.07801055926034607 0.1017889526918526 0.1017889526918526 0.1017889526918526 0.1098576867372428 0.1098576867372428 0.1098576867372428 0.1201788610361899 
0.1201788610361899 0.1201788610361899 0.06139540676032791 0.06139540676032791 0.06139540676032791 0.05271433468908765 0.05271433468908765 0.05271433468908765 0.0914400939220652 
0.0914400939220652 0.0914400939220652 -0.2924090324225662 -0.2924090324225662 -0.2924090324225662 -0.2889817844368827 -0.2889817844368827 -0.2889817844368827 -0.2779590493045065 
-0.2779590493045065 -0.2779590493045065 0.3208415746940784 0.3208415746940784 0.3208415746940784 0.3346730531255699 0.3346730531255699 0.3346730531255699 0.3505483230098075 
0.3505483230098075 0.3505483230098075 0.132139261261331 0.132139261261331 0.132139261261331 0.1434151278458594 0.1434151278458594 0.1434151278458594 0.1473409676788119 
0.1473409676788119 0.1473409676788119 0.3704355569056557 0.3704355569056557 0.3704355569056557 0.3991534194771668 0.3991534194771668 0.3991534194771668 0.206029178885968 
0.206029178885968 0.206029178885968 0.2192930995220743 0.2192930995220743 0.2192930995220743 0.2285998816307687 0.2285998816307687 0.2285998816307687 0.645278030946586 
0.645278030946586 0.645278030946586 0.6242150550907468 0.6242150550907468 0.6242150550907468 0.6251876377435299 0.6251876377435299 0.6251876377435299 -0.3709537232255685 
-0.3709537232255685 -0.3709537232255685 -0.3683492593379544 -0.3683492593379544 -0.3683492593379544 -0.3586646100454921 -0.3586646100454921 -0.3586646100454921 0.910691082219681 
0.910691082219681 0.910691082219681 0.9084530692533006 0.9084530692533006 0.9084530692533006 0.9162784680349297 0.9162784680349297 0.9162784680349297 -0.9503088841744486 
-0.9503088841744486 -0.9503088841744486 -0.9515495066941863 -0.9515495066941863 -0.9515495066941863 -0.952353822589644 -0.952353822589644 -0.952353822589644 0.1764541136191876 
0.1764541136191876 0.1764541136191876 0.1974409363280155 0.1974409363280155 0.1974409363280155 0.2074873440286576 0.2074873440286576 0.2074873440286576 0.3588803006457205 
0.3588803006457205 0.3588803006457205 0.3395229461437217 0.3395229461437217 0.3395229461437217 0.3255719395764959 0.3255719395764959 0.3255719395764959 0.1283453368375965 
0.1283453368375965 0.1283453368375965 0.1382251200364467 0.1382251200364467 0.1382251200364467 -0.3120293350807098 -0.3120293350807098 -0.3120293350807098 -0.3011899327213247 
-0.3011899327213247 -0.3011899327213247 -0.2978741484789272 -0.2978741484789272 -0.2978741484789272 -0.1126868835933349 -0.1126868835933349 -0.1126868835933349 -0.1054106863411381 
-0.1054106863411381 -0.1054106863411381 0.1459762562816088 0.1459762562816088 0.1459762562816088 0.1359357451681648 0.1359357451681648 0.1359357451681648 -0.8330610692866565 
-0.8330610692866565 -0.8330610692866565 -0.8120613235527245 -0.8120613235527245 -0.8120613235527245 0.6069254832310718 0.6069254832310718 0.6069254832310718 0.5665497969023991 
0.5665497969023991 0.5665497969023991 0.1050296436146394 0.1050296436146394 0.1050296436146394 0.1373349916520745 0.1373349916520745 0.1373349916520745 -0.766055483898791 
-0.766055483898791 -0.766055483898791 -0.7576747965162911 -0.7576747965162911 -0.7576747965162911 -0.09801345924824836 -0.09801345924824836 -0.09801345924824836 -0.1164990523327285 
-0.1164990523327285 -0.1164990523327285 -0.2320700914879973 -0.2320700914879973 -0.2320700914879973 -0.2255550346239959 -0.2255550346239959 -0.2255550346239959 -0.3996233518289987 
-0.3996233518289987 -0.3996233518289987 -0.4223864013161065 -0.4223864013161065 -0.4223864013161065 0.9527275271960318 0.9527275271960318 0.9527275271960318 0.9514226325424243 
0.9514226325424243 0.9514226325424243 -0.900222059792733 -0.900222059792733 -0.900222059792733 -0.9150050796301695 -0.9150050796301695 -0.9150050796301695 0.006413430321285924 
0.006413430321285924 0.006413430321285924 0.005626373727692331 0.005626373727692331 0.005626373727692331 -0.3896239189748447 -0.3896239189748447 -0.3896239189748447 -0.3732706986238785 
-0.3732706986238785 -0.3732706986238785 0.3428964906387749 0.3428964906387749 0.3428964906387749 0.3058748309336187 0.3058748309336187 0.3058748309336187 -0.1666398418459733 
-0.1666398418459733 -0.1666398418459733 -0.1626185901447041 -0.1626185901447041 -0.1626185901447041 0.5881920759566188 0.5881920759566188 0.5881920759566188 0.5957456405648485 
0.5957456405648485 0.5957456405648485 0.6474672719108889 0.6474672719108889 0.6474672719108889 0.6232648103839917 0.6232648103839917 0.6232648103839917 -0.78552747612493 
-0.78552747612493 -0.78552747612493 -0.7698555432272524 -0.7698555432272524 -0.7698555432272524 -0.2383028877669488 -0.2383028877669488 -0.2383028877669488 -0.2371282754973827 
-0.2371282754973827 -0.2371282754973827 -0.8265745483051861 -0.8265745483051861 -0.8265745483051861 -0.812711289173132 -0.812711289173132 -0.812711289173132 0.02320249847524461 
0.02320249847524461 0.02320249847524461 0.02043428599801631 0.02043428599801631 0.02043428599801631 -0.2715341070466042 -0.2715341070466042 -0.2715341070466042 -0.2897580843409577 
-0.2897580843409577 -0.2897580843409577 -0.1555938499883107 -0.1555938499883107 -0.1555938499883107 -0.1550880425968536 -0.1550880425968536 -0.1550880425968536 -0.3774840868862986 
-0.3774840868862986 -0.3774840868862986 -0.3608667631988892 -0.3608667631988892 -0.3608667631988892 0.7112148491251179 0.7112148491251179 0.7112148491251179 0.7388439437213928 
0.7388439437213928 0.7388439437213928 -0.4805888243605674 -0.4805888243605674 -0.4805888243605674 -0.5038129674237597 -0.5038129674237597 -0.5038129674237597 -0.6083785415128347 
-0.6083785415128347 -0.6083785415128347 -0.6396989755213963 -0.6396989755213963 -0.6396989755213963 0.890843422750439 0.890843422750439 0.890843422750439 0.8981311391645541 
0.8981311391645541 0.8981311391645541 -0.1518663993784833 -0.1518663993784833 -0.1518663993784833 -0.1499055373848223 -0.1499055373848223 -0.1499055373848223 -0.4776591785788445 
-0.4776591785788445 -0.4776591785788445 -0.5061439678385344 -0.5061439678385344 -0.5061439678385344 0.2357140876079665 0.2357140876079665 0.2357140876079665 0.2270579493561677 
0.2270579493561677 0.2270579493561677 0.2768937306888808 0.2768937306888808 0.2768937306888808 0.2902490586339818 0.2902490586339818 0.2902490586339818 -0.6234419011053656 
-0.6234419011053656 -0.6234419011053656 -0.6289937808078579 -0.6289937808078579 -0.6289937808078579 -0.2066581395468979 -0.2066581395468979 -0.2066581395468979 -0.2026500475512168 
-0.2026500475512168 -0.2026500475512168 -0.4796444377649615 -0.4796444377649615 -0.4796444377649615 -0.6298224441742535 -0.6298224441742535 -0.6298224441742535 -0.6135170719859003 
-0.6135170719859003 -0.6135170719859003 0.05430305250230283 0.05430305250230283 0.05430305250230283 0.07958737433558422 0.07958737433558422 0.07958737433558422 -0.03234349035963201 
-0.03234349035963201 -0.03234349035963201 -0.02545784769031017 -0.02545784769031017 -0.02545784769031017 -0.738366206351072 -0.738366206351072 -0.738366206351072 -0.7460151188796968 
-0.7460151188796968 -0.7460151188796968 0.06310292605326875 0.06310292605326875 0.06310292605326875 0.07586017820341928 0.07586017820341928 0.07586017820341928 0.1177751595519033 
0.1177751595519033 0.1177751595519033 0.1350439551917084 0.1350439551917084 0.1350439551917084 -0.09424959427740606 -0.09424959427740606 -0.09424959427740606 -0.07634597823530417 
-0.07634597823530417 -0.07634597823530417 -0.002297693997191856 -0.002297693997191856 -0.002297693997191856 -0.009931780419295618 -0.009931780419295618 -0.009931780419295618 -0.7924458623524836 
-0.7924458623524836 -0.7924458623524836 -0.7958763395989692 -0.7958763395989692 -0.7958763395989692 0.009630845766887589 0.009630845766887589 0.009630845766887589 0.01322888809535787 
0.01322888809535787 0.01322888809535787 0.3873245027987511 0.3873245027987511 0.3873245027987511 -0.494348819334407 -0.494348819334407 -0.494348819334407 -0.4651778508528164 
-0.4651778508528164 -0.4651778508528164 0.06682429343016136 0.06682429343016136 0.06682429343016136 0.09442197612900306 0.09442197612900306 0.09442197612900306 -0.8273187666811582 
-0.8273187666811582 -0.8273187666811582 -0.8201127069387792 -0.8201127069387792 -0.8201127069387792 0.01390978189967291 0.01390978189967291 0.01390978189967291 0.03431512199505954 
0.03431512199505954 0.03431512199505954 0.0328725765409132 0.0328725765409132 0.0328725765409132 0.02963927102885082 0.02963927102885082 0.02963927102885082 0.07294771882654379 
0.07294771882654379 0.07294771882654379 0.2148793829225668 0.2148793829225668 0.2148793829225668 0.2052449929197177 0.2052449929197177 0.2052449929197177 -0.2734432143026848 
-0.2734432143026848 -0.2734432143026848 -0.2543279755643281 -0.2543279755643281 -0.2543279755643281 0.0387243478817295 0.0387243478817295 0.0387243478817295 0.04211818263037918 
0.04211818263037918 0.04211818263037918 0.3714679896375574 0.3714679896375574 0.3714679896375574 0.3684463061759514 0.3684463061759514 0.3684463061759514 0.02394230590201774 
0.02394230590201774 0.02394230590201774 0.03009916292251472 0.03009916292251472 0.03009916292251472 0.002785411233525772 0.002785411233525772 0.002785411233525772 0.01213830301602663 
0.01213830301602663 0.01213830301602663 -0.8945026793958557 -0.8945026793958557 -0.8945026793958557 -0.9016760283589 -0.9016760283589 -0.9016760283589 0.6783189118695689 
0.6783189118695689 0.6783189118695689 0.6877039830875931 0.6877039830875931 0.6877039830875931 -0.4923597072629374 -0.4923597072629374 -0.4923597072629374 -0.4888255990909467 
-0.4888255990909467 -0.4888255990909467 -0.5593899310035064 -0.5593899310035064 -0.5593899310035064 -0.5775669985388402 -0.5775669985388402 -0.5775669985388402 0.6376560686621153 
0.6376560686621153 0.6376560686621153 0.6507996077070775 0.6507996077070775 0.6507996077070775 -0.03799631214419448 -0.03799631214419448 -0.03799631214419448 -0.04742780601930351 
-0.04742780601930351 -0.04742780601930351 -0.9322464374335909 -0.9322464374335909 -0.9322464374335909 -0.9361651076292362 -0.9361651076292362 -0.9361651076292362 0.8950253725299515 
0.8950253725299515 0.8950253725299515 0.8866884902796613 0.8866884902796613 0.8866884902796613 -0.4356379430385389 -0.4356379430385389 -0.4356379430385389 -0.5976089735592207 
-0.5976089735592207 -0.5976089735592207 0.8788574759373683 0.8788574759373683 0.8788574759373683 0.5397103760118535 0.5397103760118535 0.5397103760118535 0.5502883378927266 
0.5502883378927266 0.5502883378927266 -0.3359433015570625 -0.3359433015570625 -0.3359433015570625 -0.3655052630788536 -0.3655052630788536 -0.3655052630788536 -0.1329018968238165 
-0.1329018968238165 -0.1329018968238165 -0.1274422866819508 -0.1274422866819508 -0.1274422866819508 0.8056777410793764 0.8056777410793764 0.8056777410793764 0.7888712243774343 
0.7888712243774343 0.7888712243774343 -0.7857802788400676 -0.7857802788400676 -0.7857802788400676 -0.814673427806671 -0.814673427806671 -0.814673427806671 0.2077289481776857 
0.2077289481776857 0.2077289481776857 0.1821413728695956 0.1821413728695956 0.1821413728695956 -0.00640483905814189 -0.00640483905814189 -0.00640483905814189 -0.01179596895502196 
-0.01179596895502196 -0.01179596895502196 -0.163289221372418 -0.163289221372418 -0.163289221372418 -0.1689473848832385 -0.1689473848832385 -0.1689473848832385 -0.04552993412575852 
-0.04552993412575852 -0.04552993412575852 0.0007276527793287246 0.0007276527793287246 0.0007276527793287246 0.7138914636958005 0.7138914636958005 0.7138914636958005 0.6880183549823631 
0.6880183549823631 0.6880183549823631 -0.08776053635491168 -0.08776053635491168 -0.08776053635491168 -0.06178696650421254 -0.06178696650421254 -0.06178696650421254 -0.8268865199185408 
-0.8268865199185408 -0.8268865199185408 -0.8375621089186948 -0.8375621089186948 -0.8375621089186948 0.470495659866996 0.470495659866996 0.470495659866996 0.4758398030205977 
0.4758398030205977 0.4758398030205977 0.5021545968858194 0.5021545968858194 0.5021545968858194 0.5330348584794159 0.5330348584794159 0.5330348584794159 0.144772537597923 
0.144772537597923 0.144772537597923 0.1694554711780122 0.1694554711780122 0.1694554711780122 0.3713856627066318 0.3713856627066318 0.3713856627066318 0.4070328570188009 
0.4070328570188009 0.4070328570188009 -0.001248916270261474 -0.001248916270261474 -0.001248916270261474 0.4089324197248912 0.4089324197248912 0.4089324197248912 0.4406127415696564 
0.4406127415696564 0.4406127415696564 0.747776155153717 0.747776155153717 0.747776155153717 0.7483363651415336 0.7483363651415336 0.7483363651415336 -0.01157496841371836 
-0.01157496841371836 -0.01157496841371836 -0.01595399366541205 -0.01595399366541205 -0.01595399366541205 0.3591751705707261 0.3591751705707261 0.3591751705707261 0.3684675035373071 
0.3684675035373071 0.3684675035373071 0.06515524743875963 0.06515524743875963 0.06515524743875963 0.06726675214363668 0.06726675214363668 0.06726675214363668 -0.3833336150441258 
-0.3833336150441258 -0.3833336150441258 -0.3969286426219816 -0.3969286426219816 -0.3969286426219816 0.1466216611188871 0.1466216611188871 0.1466216611188871 0.1910225686416355 
0.1910225686416355 0.1910225686416355 0.3136745682795439 0.3136745682795439 0.3136745682795439 0.355968804100646 0.355968804100646 0.355968804100646 -0.3030451525957397 
-0.3030451525957397 -0.3030451525957397 -0.2876662465109971 -0.2876662465109971 -0.2876662465109971 0.9116137387386811 0.9116137387386811 0.9116137387386811 0.90671491592012 
0.90671491592012 0.90671491592012 -0.2980835352921004 -0.2980835352921004 -0.2980835352921004 -0.3403114586106371 -0.3403114586106371 -0.3403114586106371 -0.5385985039049184 
-0.5385985039049184 -0.5385985039049184 -0.5083553306393079 -0.5083553306393079 -0.5083553306393079 0.4191495297399995 0.4191495297399995 0.4191495297399995 0.3871177279954541 
0.3871177279954541 0.3871177279954541 0.1365350949101113 0.1365350949101113 0.1365350949101113 0.1402252894437456 0.1402252894437456 0.1402252894437456 0.4204456630022166 
0.4204456630022166 0.4204456630022166 0.4392801065238943 0.4392801065238943 0.4392801065238943 0.7172183122572648 0.7172183122572648 0.7172183122572648 0.7455356253032611 
0.7455356253032611 0.7455356253032611 -0.3003194485873223 -0.3003194485873223 -0.3003194485873223 -0.2789255079138202 -0.2789255079138202 -0.2789255079138202 0.4760102213545805 
0.4760102213545805 0.4760102213545805 0.4486995812349701 0.4486995812349701 0.4486995812349701 0.656267983921023 0.656267983921023 0.656267983921023 0.6642435518651015 
0.6642435518651015 0.6642435518651015 -0.1499051017161036 -0.1499051017161036 -0.1499051017161036 -0.1702653895865785 -0.1702653895865785 -0.1702653895865785 -0.03438986516420404 
-0.03438986516420404 -0.03438986516420404 -0.02738520422122918 -0.02738520422122918 -0.02738520422122918 -0.01025674410284708 -0.01025674410284708 -0.01025674410284708 -0.008923777140968396 
-0.008923777140968396 -0.008923777140968396 0.4350600956785652 0.4350600956785652 0.4350600956785652 0.4346363640269587 0.4346363640269587 0.4346363640269587 0.4028856138291638 
0.4028856138291638 0.4028856138291638 0.4403724511810218 0.4403724511810218 0.4403724511810218 0.2130511067336235 0.2130511067336235 0.2130511067336235 0.2000811601656006 
0.2000811601656006 0.2000811601656006 -0.8494828277588256 -0.8494828277588256 -0.8494828277588256 -0.8470132908212378 -0.8470132908212378 -0.8470132908212378 0.03920527205262746 
0.03920527205262746 0.03920527205262746 0.04974060046271176 0.04974060046271176 0.04974060046271176 -0.41751958113398 -0.41751958113398 -0.41751958113398 -0.4485724182938307 
-0.4485724182938307 -0.4485724182938307 0.3677208169506024 0.3677208169506024 0.3677208169506024 0.3987776918501743 0.3987776918501743 0.3987776918501743 -0.4547755578333391 
-0.4547755578333391 -0.4547755578333391 -0.4890177486591395 -0.4890177486591395 -0.4890177486591395 -0.3445706085824168 -0.3445706085824168 -0.3445706085824168 -0.3383095454861705 
-0.3383095454861705 -0.3383095454861705 0.742012871517578 0.742012871517578 0.742012871517578 0.7102376798829334 0.7102376798829334 0.7102376798829334 -0.28856421075798 
-0.28856421075798 -0.28856421075798 -0.304603616580955 -0.304603616580955 -0.304603616580955 0.8697755895805971 0.8697755895805971 0.8697755895805971 0.8455888654586491 
0.8455888654586491 0.8455888654586491 -0.7819892972822247 -0.7819892972822247 -0.7819892972822247 -0.756311570393125 -0.756311570393125 -0.756311570393125 0.4626535306184141 
0.4626535306184141 0.4626535306184141 0.4461690011727759 0.4461690011727759 0.4461690011727759 0.7843191221935135 0.7843191221935135 0.7843191221935135 0.8018845076887748 
0.8018845076887748 0.8018845076887748 0.06800037712127363 0.06800037712127363 0.06800037712127363 0.04356606509306526 0.04356606509306526 0.04356606509306526 -0.8367918402617788 
-0.8367918402617788 -0.8367918402617788 -0.8109407348283955 -0.8109407348283955 -0.8109407348283955 -0.2033787037313459 -0.2033787037313459 -0.2033787037313459 -0.2353164737250868 
-0.2353164737250868 -0.2353164737250868 -0.6759648115609922 -0.6759648115609922 -0.6759648115609922 -0.6876086856502601 -0.6876086856502601 -0.6876086856502601 0.02340171647282268 
0.02340171647282268 0.02340171647282268 0.07922998696658039 0.07922998696658039 0.07922998696658039 0.2104937060357877 0.2104937060357877 0.2104937060357877 0.1803174108126097 
0.1803174108126097 0.1803174108126097 0.6648544039714328 0.6648544039714328 0.6648544039714328 0.6820273148376397 0.6820273148376397 0.6820273148376397 0.6726992294284588 
0.6726992294284588 0.6726992294284588 0.659665296664578 0.659665296664578 0.659665296664578 -0.6255209099709661 -0.6255209099709661 -0.6255209099709661 -0.6300686147457337 
-0.6300686147457337 -0.6300686147457337 -0.6182625373571424 -0.6182625373571424 -0.6182625373571424 -0.8887977799946258 -0.8887977799946258 -0.8887977799946258 -0.8794765229564945 
-0.8794765229564945 -0.8794765229564945 -0.8843442306350463 -0.8843442306350463 -0.8843442306350463 0.035550575584698 0.035550575584698 0.035550575584698 0.03422992342086753 
0.03422992342086753 0.03422992342086753 0.01811621479443874 0.01811621479443874 0.01811621479443874 -0.09949394407185753 -0.09949394407185753 -0.09949394407185753 -0.0918083090257823 
-0.0918083090257823 -0.0918083090257823 -0.09441259812304229 -0.09441259812304229 -0.09441259812304229 -0.7327123200714856 -0.7327123200714856 -0.7327123200714856 -0.7424215520234052 
-0.7424215520234052 -0.7424215520234052 -0.7283634742581715 -0.7283634742581715 -0.7283634742581715 0.1448206670115829 0.1448206670115829 0.1448206670115829 0.1069188160752525 
0.1069188160752525 0.1069188160752525 0.1209569488597297 0.1209569488597297 0.1209569488597297 -0.257047738169677 -0.257047738169677 -0.257047738169677 0.951806555130039 
0.951806555130039 0.951806555130039 0.9517497773015733 0.9517497773015733 0.9517497773015733 0.9515823221589655 0.9515823221589655 0.9515823221589655 -0.7782988850381876 
-0.7782988850381876 -0.7782988850381876 -0.7751256722942945 -0.7751256722942945 -0.7751256722942945 -0.8092830612343512 -0.8092830612343512 -0.8092830612343512 0.914427687175013 
0.914427687175013 0.914427687175013 0.901577442611148 0.901577442611148 0.901577442611148 0.9010836342711592 0.9010836342711592 0.9010836342711592 0.4171916611730655 
0.4171916611730655 0.4171916611730655 0.3893802310043113 0.3893802310043113 0.3893802310043113 0.4195158498205407 0.4195158498205407 0.4195158498205407 0.05477612946951141 
0.05477612946951141 0.05477612946951141 0.06445960959360346 0.06445960959360346 0.06445960959360346 0.06727609775693691 0.06727609775693691 0.06727609775693691 -0.269612348170063 
-0.269612348170063 -0.269612348170063 -0.2913512365090264 -0.2913512365090264 -0.2913512365090264 -0.3372911376668546 -0.3372911376668546 -0.3372911376668546 0.3769586323928831 
0.3769586323928831 0.3769586323928831 0.3740856431933883 0.3740856431933883 0.3740856431933883 0.3786821272365744 0.3786821272365744 0.3786821272365744 -0.8039627404307812 
-0.8039627404307812 -0.8039627404307812 -0.8018329434116789 -0.8018329434116789 -0.8018329434116789 -0.77215109807464 -0.77215109807464 -0.77215109807464 0.9385695151390028 
0.9385695151390028 0.9385695151390028 0.93312372540855 0.93312372540855 0.93312372540855 0.927873393519715 0.927873393519715 0.927873393519715 0.4548374933838601 
0.4548374933838601 0.4548374933838601 0.4250342106332343 0.4250342106332343 0.4250342106332343 0.4022039292927147 0.4022039292927147 0.4022039292927147 0.1735304556079322 
0.1735304556079322 0.1735304556079322 0.1759134286692718 0.1759134286692718 0.1759134286692718 0.1847600902746262 0.1847600902746262 0.1847600902746262 -0.8681408919321463 
-0.8681408919321463 -0.8681408919321463 -0.8636592457946177 -0.8636592457946177 -0.8636592457946177 -0.8542541202156042 -0.8542541202156042 -0.8542541202156042 0.2648043839603409 
0.2648043839603409 0.2648043839603409 0.2585652507317575 0.2585652507317575 0.2585652507317575 0.2696047272717358 0.2696047272717358 0.2696047272717358 -0.3346282507195001 
-0.3346282507195001 -0.3346282507195001 -0.32140994814116 -0.32140994814116 -0.32140994814116 -0.2961929527652852 -0.2961929527652852 -0.2961929527652852 0.5405039722785117 
0.5405039722785117 0.5405039722785117 0.5559098260042763 0.5559098260042763 0.5559098260042763 0.5723424489542248 0.5723424489542248 0.5723424489542248 -0.4008047580753066 
-0.4008047580753066 -0.4008047580753066 -0.4204694147545512 -0.4204694147545512 -0.4204694147545512 -0.4424015240594373 -0.4424015240594373 -0.4424015240594373 -0.8096832897472683 
-0.8096832897472683 -0.8096832897472683 -0.8011369217688445 -0.8011369217688445 -0.8011369217688445 -0.7858973951067827 -0.7858973951067827 -0.7858973951067827 -0.1108742558414885 
-0.1108742558414885 -0.1108742558414885 -0.1181782556193499 -0.1181782556193499 -0.1181782556193499 -0.1311776279524612 -0.1311776279524612 -0.1311776279524612 -0.3132421834840085 
-0.3132421834840085 -0.3132421834840085 -0.3404095203097984 -0.3404095203097984 -0.3404095203097984 -0.3564971841021135 -0.3564971841021135 -0.3564971841021135 0.9271713953031202 
0.9271713953031202 0.9271713953031202 0.9359006719620988 0.9359006719620988 0.9359006719620988 0.9332332239294341 0.9332332239294341 0.9332332239294341 -0.1071592785349542 
-0.1071592785349542 -0.1071592785349542 -0.08368584256358713 -0.08368584256358713 -0.08368584256358713 -0.104301667883523 -0.104301667883523 -0.104301667883523 -0.705340031679224 