Title = Triangle100
FileType = Solution
Variables = q
Zone T = Triangle100
ZoneType = FETriangle
Nodes = 99072
Elements = 33024
DataPacking = Block
StrandID = 2
SolutionTime = 0.1
0.5331799815049709 0.5331799815049709 0.5331799815049709 0.5028089466116299 0.5028089466116299 0.5028089466116299 0.4941455303190516 0.4941455303190516 0.4941455303190516 -0.1797283515242051 
-0.1797283515242051 -0.1797283515242051 -0.1567759780701473 -0.1567759780701473 -0.1567759780701473 0.6161608072003325 0.6161608072003325 0.6161608072003325 0.6306343402789027 
0.6306343402789027 0.6306343402789027 0.230439990482977 0.230439990482977 0.230439990482977 0.2397237503934198 0.2397237503934198 0.2397237503934198 0.444428600976371 
0.444428600976371 0.444428600976371 0.4283945907369781 0.4283945907369781 0.4283945907369781 -0.0388025565757117 -0.0388025565757117 -0.0388025565757117 -0.009939601468725809 
-0.009939601468725809 -0.009939601468725809 -0.2059447050160004 -0.2059447050160004 -0.2059447050160004 -0.1850769126184873 -0.1850769126184873 -0.1850769126184873 0.10280765986487 
0.10280765986487 0.10280765986487 0.07506843926352796 0.07506843926352796 0.07506843926352796 0.06171952360298751 0.06171952360298751 0.06171952360298751 0.0733532389056091 
0.0733532389056091 0.0733532389056091 0.6679698126546108 0.6679698126546108 0.6679698126546108 0.6938556897488559 0.6938556897488559 0.6938556897488559 0.6489122825955442 
0.6489122825955442 0.6489122825955442 0.1218280377517541 0.1218280377517541 0.1218280377517541 0.1115449561590852 0.1115449561590852 0.1115449561590852 0.3234486683097609 
0.3234486683097609 0.3234486683097609 0.3522017118008981 0.3522017118008981 0.3522017118008981 0.1979846955720073 0.1979846955720073 0.1979846955720073 0.2010893811232547 
0.2010893811232547 0.2010893811232547 -0.4022172904597106 -0.4022172904597106 -0.4022172904597106 -0.4418940689369302 -0.4418940689369302 -0.4418940689369302 -0.8144743383633518 
-0.8144743383633518 -0.8144743383633518 -0.8287552595199245 -0.8287552595199245 -0.8287552595199245 -0.8371745233849648 -0.8371745233849648 -0.8371745233849648 0.2669589861807413 
0.2669589861807413 0.2669589861807413 0.2461642253414175 0.2461642253414175 0.2461642253414175 0.2332050565483505 0.2332050565483505 0.2332050565483505 -0.2213017237154134 
-0.2213017237154134 -0.2213017237154134 -0.2326731582136578 -0.2326731582136578 -0.2326731582136578 -0.1999413910161723 -0.1999413910161723 -0.1999413910161723 0.02294349454776925 
0.02294349454776925 0.02294349454776925 0.003574640638195787 0.003574640638195787 0.003574640638195787 -0.003000796061220863 -0.003000796061220863 -0.003000796061220863 0.09649667142958551 
0.09649667142958551 0.09649667142958551 0.1080320561912882 0.1080320561912882 0.1080320561912882 0.1114682533402896 0.1114682533402896 0.1114682533402896 -0.2731062081582852 
-0.2731062081582852 -0.2731062081582852 -0.2901843665656981 -0.2901843665656981 -0.2901843665656981 -0.3080938424979718 -0.3080938424979718 -0.3080938424979718 -0.2184899650983072 
-0.2184899650983072 -0.2184899650983072 -0.2319279872830601 -0.2319279872830601 -0.2319279872830601 -0.2213652404226755 -0.2213652404226755 -0.2213652404226755 0.7349545008188108 
0.7349545008188108 0.7349545008188108 0.7082135736851086 0.7082135736851086 0.7082135736851086 0.07481029240164946 0.07481029240164946 0.07481029240164946 0.07934369826646617 
0.07934369826646617 0.07934369826646617 -0.392986674598465 -0.392986674598465 -0.392986674598465 -0.3723601930864566 -0.3723601930864566 -0.3723601930864566 -0.02535149780990542 
-0.02535149780990542 -0.02535149780990542 -0.003279627563886971 -0.003279627563886971 -0.003279627563886971 0.4594751159668488 0.4594751159668488 0.4594751159668488 0.4275938680791623 
0.4275938680791623 0.4275938680791623 0.3493229101773931 0.3493229101773931 0.3493229101773931 0.3548469315607244 0.3548469315607244 0.3548469315607244 -0.620111490939531 
-0.620111490939531 -0.620111490939531 -0.6384048289416325 -0.6384048289416325 -0.6384048289416325 0.6624620427219167 0.6624620427219167 0.6624620427219167 0.6380517618903488 
0.6380517618903488 0.6380517618903488 -0.6191416948653141 -0.6191416948653141 -0.6191416948653141 -0.6114280974836855 -0.6114280974836855 -0.6114280974836855 0.03262724605274464 
0.03262724605274464 0.03262724605274464 0.0410947006817973 0.0410947006817973 0.0410947006817973 0.5637518871816098 0.5637518871816098 0.5637518871816098 0.5810024188326518 
0.5810024188326518 0.5810024188326518 -0.5487415620424699 -0.5487415620424699 -0.5487415620424699 -0.5312697949559907 -0.5312697949559907 -0.5312697949559907 -0.4085772436638706 
-0.4085772436638706 -0.4085772436638706 -0.4003485878412404 -0.4003485878412404 -0.4003485878412404 -0.345311778242309 -0.345311778242309 -0.345311778242309 -0.3629417143669289 
-0.3629417143669289 -0.3629417143669289 -0.4146022006764517 -0.4146022006764517 -0.4146022006764517 -0.4236124061798901 -0.4236124061798901 -0.4236124061798901 -0.2456006375671209 
-0.2456006375671209 -0.2456006375671209 -0.2485442889318603 -0.2485442889318603 -0.2485442889318603 0.6874237444893765 0.6874237444893765 0.6874237444893765 0.6911781130093304 
0.6911781130093304 0.6911781130093304 0.3900054077347384 0.3900054077347384 0.3900054077347384 0.3908694527352615 0.3908694527352615 0.3908694527352615 0.379894896744191 
0.379894896744191 0.379894896744191 0.3664341358534598 0.3664341358534598 0.3664341358534598 -0.1648583929311659 -0.1648583929311659 -0.1648583929311659 -0.138102651990006 
-0.138102651990006 -0.138102651990006 0.009156664285106537 0.009156664285106537 0.009156664285106537 0.5194134380084851 0.5194134380084851 0.5194134380084851 0.4937513230926543 
0.4937513230926543 0.4937513230926543 0.06514692791877866 0.06514692791877866 0.06514692791877866 0.09240810738163432 0.09240810738163432 0.09240810738163432 -0.2205138438693289 
-0.2205138438693289 -0.2205138438693289 -0.247291242384887 -0.247291242384887 -0.247291242384887 0.7657724898868815 0.7657724898868815 0.7657724898868815 0.7440214856286993 
0.7440214856286993 0.7440214856286993 -0.1085092996231794 -0.1085092996231794 -0.1085092996231794 -0.1425786654949986 -0.1425786654949986 -0.1425786654949986 -0.1909531729616923 
-0.1909531729616923 -0.1909531729616923 -0.1662613910610801 -0.1662613910610801 -0.1662613910610801 0.712598060922102 0.712598060922102 0.712598060922102 0.7007797318981599 
0.7007797318981599 0.7007797318981599 0.5923786868500704 0.5923786868500704 0.5923786868500704 0.5572757372659771 0.5572757372659771 0.5572757372659771 0.5617580523169309 
0.5617580523169309 0.5617580523169309 0.5394466867247464 0.5394466867247464 0.5394466867247464 0.1739673923492177 0.1739673923492177 0.1739673923492177 0.1974547377198961 
0.1974547377198961 0.1974547377198961 -0.3683970656484943 -0.3683970656484943 -0.3683970656484943 -0.3200661360761832 -0.3200661360761832 -0.3200661360761832 -0.2511681130911207 
-0.2511681130911207 -0.2511681130911207 -0.2276763917496916 -0.2276763917496916 -0.2276763917496916 -0.7536218213160506 -0.7536218213160506 -0.7536218213160506 -0.7190956232543484 
-0.7190956232543484 -0.7190956232543484 0.2696682150878189 0.2696682150878189 0.2696682150878189 0.2588139738461542 0.2588139738461542 0.2588139738461542 -0.1761541993577114 
-0.1761541993577114 -0.1761541993577114 -0.1247531941876383 -0.1247531941876383 -0.1247531941876383 -0.2341407518231595 -0.2341407518231595 -0.2341407518231595 -0.2662489748091557 
-0.2662489748091557 -0.2662489748091557 0.7566376469448084 0.7566376469448084 0.7566376469448084 0.7483189695449118 0.7483189695449118 0.7483189695449118 0.7375689570394384 
0.7375689570394384 0.7375689570394384 -0.0826432632029702 -0.0826432632029702 -0.0826432632029702 -0.04426565089470381 -0.04426565089470381 -0.04426565089470381 -0.02328654035560749 
-0.02328654035560749 -0.02328654035560749 -0.2739140105038484 -0.2739140105038484 -0.2739140105038484 -0.2862235329462264 -0.2862235329462264 -0.2862235329462264 -0.3022286766688258 
-0.3022286766688258 -0.3022286766688258 0.151312512928111 0.151312512928111 0.151312512928111 0.1418060969220833 0.1418060969220833 0.1418060969220833 0.1244098022596954 
0.1244098022596954 0.1244098022596954 -0.9675079944050806 -0.9675079944050806 -0.9675079944050806 -0.9669338491139075 -0.9669338491139075 -0.9669338491139075 -0.9632881103684297 
-0.9632881103684297 -0.9632881103684297 0.04636292859131837 0.04636292859131837 0.04636292859131837 0.06277402728384812 0.06277402728384812 0.06277402728384812 0.4570417637514169 
0.4570417637514169 0.4570417637514169 0.4399071073520272 0.4399071073520272 0.4399071073520272 0.408137690306059 0.408137690306059 0.408137690306059 -0.2521627839702968 
-0.2521627839702968 -0.2521627839702968 -0.2671781228290126 -0.2671781228290126 -0.2671781228290126 -0.29648612786795 -0.29648612786795 -0.29648612786795 -0.349336024214394 
-0.349336024214394 -0.349336024214394 -0.3496500721638138 -0.3496500721638138 -0.3496500721638138 -0.3593759692024929 -0.3593759692024929 -0.3593759692024929 -0.2037899060859469 
-0.2037899060859469 -0.2037899060859469 -0.2246828817008415 -0.2246828817008415 -0.2246828817008415 -0.22533550342235 -0.22533550342235 -0.22533550342235 0.1415571102894325 
0.1415571102894325 0.1415571102894325 0.1490102417996735 0.1490102417996735 0.1490102417996735 0.1537982133149904 0.1537982133149904 0.1537982133149904 0.570532751857689 
0.570532751857689 0.570532751857689 0.5443691784235805 0.5443691784235805 0.5443691784235805 0.5325980560073069 0.5325980560073069 0.5325980560073069 0.6621398543984882 
0.6621398543984882 0.6621398543984882 0.6817014386521608 0.6817014386521608 0.6817014386521608 0.6948398320806892 0.6948398320806892 0.6948398320806892 0.7288523443937961 
0.7288523443937961 0.7288523443937961 0.7181348314088676 0.7181348314088676 0.7181348314088676 0.111276476956114 0.111276476956114 0.111276476956114 0.109616294625286 
0.109616294625286 0.109616294625286 0.1022550064632164 0.1022550064632164 0.1022550064632164 -0.5834892501172355 -0.5834892501172355 -0.5834892501172355 -0.5778453209105017 
-0.5778453209105017 -0.5778453209105017 0.7705631615983963 0.7705631615983963 0.7705631615983963 0.7732388937414247 0.7732388937414247 0.7732388937414247 0.4870671246101619 
0.4870671246101619 0.4870671246101619 0.5223963809592975 0.5223963809592975 0.5223963809592975 -0.1439859698257762 -0.1439859698257762 -0.1439859698257762 -0.170201452103614 
-0.170201452103614 -0.170201452103614 0.1636207907159911 0.1636207907159911 0.1636207907159911 0.1469745180345146 0.1469745180345146 0.1469745180345146 0.6058725926529411 
0.6058725926529411 0.6058725926529411 0.6215944425595682 0.6215944425595682 0.6215944425595682 -0.6948930795568298 -0.6948930795568298 -0.6948930795568298 -0.683077974853617 
-0.683077974853617 -0.683077974853617 0.5110288794954123 0.5110288794954123 0.5110288794954123 0.4954748338179191 0.4954748338179191 0.4954748338179191 -0.07424568120845265 
-0.07424568120845265 -0.07424568120845265 -0.07281411190482395 -0.07281411190482395 -0.07281411190482395 -0.1618299404557774 -0.1618299404557774 -0.1618299404557774 -0.1361003229167655 
-0.1361003229167655 -0.1361003229167655 0.002903899441419582 0.002903899441419582 0.002903899441419582 0.0282979934590822 0.0282979934590822 0.0282979934590822 0.679919533041344 
0.679919533041344 0.679919533041344 0.6728710425043292 0.6728710425043292 0.6728710425043292 -0.06270910425605986 -0.06270910425605986 -0.06270910425605986 -0.06428439004125365 
-0.06428439004125365 -0.06428439004125365 -0.1744373369510898 -0.1744373369510898 -0.1744373369510898 -0.1942894849024791 -0.1942894849024791 -0.1942894849024791 0.7926995616204923 
0.7926995616204923 0.7926995616204923 0.7789317955493422 0.7789317955493422 0.7789317955493422 -0.7887245794938134 -0.7887245794938134 -0.7887245794938134 -0.7851330542112321 
-0.7851330542112321 -0.7851330542112321 -0.7442466539851079 -0.7442466539851079 -0.7442466539851079 -0.7651693788085372 -0.7651693788085372 -0.7651693788085372 0.4259832887317972 
0.4259832887317972 0.4259832887317972 0.417691969256747 0.417691969256747 0.417691969256747 -0.7602425633128795 -0.7602425633128795 -0.7602425633128795 -0.7666808681368289 
-0.7666808681368289 -0.7666808681368289 0.01189057495406348 0.01189057495406348 0.01189057495406348 0.003790481386769242 0.003790481386769242 0.003790481386769242 0.6940006642498726 
0.6940006642498726 0.6940006642498726 0.6969348211728718 0.6969348211728718 0.6969348211728718 -0.60658890368504 -0.60658890368504 -0.60658890368504 -0.5810299459097483 
-0.5810299459097483 -0.5810299459097483 0.8956599043294107 0.8956599043294107 0.8956599043294107 0.8879552937954878 0.8879552937954878 0.8879552937954878 -0.3460593585824019 
-0.3460593585824019 -0.3460593585824019 -0.3584237656463923 -0.3584237656463923 -0.3584237656463923 -0.6687859416695037 -0.6687859416695037 -0.6687859416695037 -0.6361512563587427 
-0.6361512563587427 -0.6361512563587427 -0.07910732731436383 -0.07910732731436383 -0.07910732731436383 -0.08352794252135498 -0.08352794252135498 -0.08352794252135498 -0.2183952104816317 
-0.2183952104816317 -0.2183952104816317 -0.2084386749139283 -0.2084386749139283 -0.2084386749139283 -0.2440782604193816 -0.2440782604193816 -0.2440782604193816 -0.2422709209628323 
-0.2422709209628323 -0.2422709209628323 0.5836371167201074 0.5836371167201074 0.5836371167201074 0.5623288192770968 0.5623288192770968 0.5623288192770968 -0.185375523158304 
-0.185375523158304 -0.185375523158304 -0.1700622522732737 -0.1700622522732737 -0.1700622522732737 0.6556782630117152 0.6556782630117152 0.6556782630117152 0.6423039465446196 
0.6423039465446196 0.6423039465446196 0.7361383363751313 0.7361383363751313 0.7361383363751313 0.7189324283194407 0.7189324283194407 0.7189324283194407 0.7649742956528121 
0.7649742956528121 0.7649742956528121 0.7576873666309956 0.7576873666309956 0.7576873666309956 0.7452003243883034 0.7452003243883034 0.7452003243883034 0.7323478381279134 
0.7323478381279134 0.7323478381279134 -0.1891486242153329 -0.1891486242153329 -0.1891486242153329 0.3989800973782901 0.3989800973782901 0.3989800973782901 0.3941003491231527 
0.3941003491231527 0.3941003491231527 -0.7414231394496049 -0.7414231394496049 -0.7414231394496049 -0.7305758840468315 -0.7305758840468315 -0.7305758840468315 -0.6535449787919487 
-0.6535449787919487 -0.6535449787919487 -0.6662268704508186 -0.6662268704508186 -0.6662268704508186 -0.2520293524034194 -0.2520293524034194 -0.2520293524034194 -0.2388691632337811 
-0.2388691632337811 -0.2388691632337811 -0.160301916491992 -0.160301916491992 -0.160301916491992 -0.1773494502816282 -0.1773494502816282 -0.1773494502816282 0.02666628926370849 
0.02666628926370849 0.02666628926370849 0.01370616762852988 0.01370616762852988 0.01370616762852988 0.3402708957008907 0.3402708957008907 0.3402708957008907 0.3612358817689454 
0.3612358817689454 0.3612358817689454 -0.8274694202183028 -0.8274694202183028 -0.8274694202183028 -0.8113512544921498 -0.8113512544921498 -0.8113512544921498 0.3627510153796186 
0.3627510153796186 0.3627510153796186 0.3775648482144871 0.3775648482144871 0.3775648482144871 -0.8617473041750895 -0.8617473041750895 -0.8617473041750895 -0.8723829467363601 
-0.8723829467363601 -0.8723829467363601 0.0742618586470038 0.0742618586470038 0.0742618586470038 -0.3860904912461652 -0.3860904912461652 -0.3860904912461652 -0.4026487685970914 
-0.4026487685970914 -0.4026487685970914 -0.1580686755115899 -0.1580686755115899 -0.1580686755115899 -0.1485804165190089 -0.1485804165190089 -0.1485804165190089 0.05047043291453869 
0.05047043291453869 0.05047043291453869 0.04807077255807789 0.04807077255807789 0.04807077255807789 0.4150285822972538 0.4150285822972538 0.4150285822972538 0.4160623436747191 
0.4160623436747191 0.4160623436747191 0.6255591446085625 0.6255591446085625 0.6255591446085625 0.6508643400293586 0.6508643400293586 0.6508643400293586 -0.1964449393069504 
-0.1964449393069504 -0.1964449393069504 0.7488737320539625 0.7488737320539625 0.7488737320539625 0.7687191931584645 0.7687191931584645 0.7687191931584645 -0.05364653476374013 
-0.05364653476374013 -0.05364653476374013 -0.07209750453342412 -0.07209750453342412 -0.07209750453342412 -0.8774952048035912 -0.8774952048035912 -0.8774952048035912 -0.8870338910397289 
-0.8870338910397289 -0.8870338910397289 -0.4065483309584301 -0.4065483309584301 -0.4065483309584301 -0.4368507680892014 -0.4368507680892014 -0.4368507680892014 -0.7100119530889759 
-0.7100119530889759 -0.7100119530889759 -0.6772364227932575 -0.6772364227932575 -0.6772364227932575 0.3889101281512946 0.3889101281512946 0.3889101281512946 0.3714298792492071 
0.3714298792492071 0.3714298792492071 0.1595567118538601 0.1595567118538601 0.1595567118538601 0.1593651719928486 0.1593651719928486 0.1593651719928486 0.05980188790134244 
0.05980188790134244 0.05980188790134244 0.05302162806906494 0.05302162806906494 0.05302162806906494 0.2121217260456073 0.2121217260456073 0.2121217260456073 0.1660136626557769 
0.1660136626557769 0.1660136626557769 0.4585676320481467 0.4585676320481467 0.4585676320481467 0.4702525090664843 0.4702525090664843 0.4702525090664843 -0.01878920566792737 
-0.01878920566792737 -0.01878920566792737 -0.02610438063788141 -0.02610438063788141 -0.02610438063788141 -0.4547567653296603 -0.4547567653296603 -0.4547567653296603 -0.4479796103960628 
-0.4479796103960628 -0.4479796103960628 0.2429713252940531 0.2429713252940531 0.2429713252940531 0.24005002783613 0.24005002783613 0.24005002783613 -0.235307961047743 
-0.235307961047743 -0.235307961047743 -0.2463918859252059 -0.2463918859252059 -0.2463918859252059 0.08925532839170759 0.08925532839170759 0.08925532839170759 -0.3185883872144253 
-0.3185883872144253 -0.3185883872144253 -0.1399632191412315 -0.1399632191412315 -0.1399632191412315 -0.8088262291278163 -0.8088262291278163 -0.8088262291278163 -0.8150241610397615 
-0.8150241610397615 -0.8150241610397615 -0.6776751788616756 -0.6776751788616756 -0.6776751788616756 -0.6516971997054386 -0.6516971997054386 -0.6516971997054386 0.7147650139723551 
0.7147650139723551 0.7147650139723551 0.6823543635497568 0.6823543635497568 0.6823543635497568 0.1178984186834149 0.1178984186834149 0.1178984186834149 0.1426338506476925 
0.1426338506476925 0.1426338506476925 0.4848888116932811 0.4848888116932811 0.4848888116932811 0.4342584234329971 0.4342584234329971 0.4342584234329971 -0.2826003598356678 
-0.2826003598356678 -0.2826003598356678 -0.2967989531747454 -0.2967989531747454 -0.2967989531747454 -0.8359716382075911 -0.8359716382075911 -0.8359716382075911 -0.8118574986994995 
-0.8118574986994995 -0.8118574986994995 0.2883102041075856 0.2883102041075856 0.2883102041075856 0.3053765745675101 0.3053765745675101 0.3053765745675101 -0.4087491339497487 
-0.4087491339497487 -0.4087491339497487 -0.4390358412478662 -0.4390358412478662 -0.4390358412478662 -0.6754052612297212 -0.6754052612297212 -0.6754052612297212 -0.7048449382263353 
-0.7048449382263353 -0.7048449382263353 0.4418167790970806 0.4418167790970806 0.4418167790970806 0.4882043670634306 0.4882043670634306 0.4882043670634306 0.1944640901714902 
0.1944640901714902 0.1944640901714902 0.2157693046227979 0.2157693046227979 0.2157693046227979 0.219528354198101 0.219528354198101 0.219528354198101 0.2284185244324434 
0.2284185244324434 0.2284185244324434 0.5217511454062334 0.5217511454062334 0.5217511454062334 0.4876220447328561 0.4876220447328561 0.4876220447328561 0.4264449723336589 
0.4264449723336589 0.4264449723336589 0.3958174215633229 0.3958174215633229 0.3958174215633229 -0.2111884971832237 -0.2111884971832237 -0.2111884971832237 -0.2387592150030647 
-0.2387592150030647 -0.2387592150030647 -0.8460085120968794 -0.8460085120968794 -0.8460085120968794 -0.1105027423339149 -0.1105027423339149 -0.1105027423339149 -0.09608134205863378 
-0.09608134205863378 -0.09608134205863378 0.172472714322541 0.172472714322541 0.172472714322541 0.1539570700636322 0.1539570700636322 0.1539570700636322 -0.8029868021311719 
-0.8029868021311719 -0.8029868021311719 -0.7981675503671104 -0.7981675503671104 -0.7981675503671104 0.3051725215277475 0.3051725215277475 0.3051725215277475 0.3453699675329253 
0.3453699675329253 0.3453699675329253 -0.3777466513629244 -0.3777466513629244 -0.3777466513629244 -0.3325321910339127 -0.3325321910339127 -0.3325321910339127 -0.6344114916872645 
-0.6344114916872645 -0.6344114916872645 -0.6272475939652123 -0.6272475939652123 -0.6272475939652123 -0.2437042794796709 -0.2437042794796709 -0.2437042794796709 -0.2055308310255081 
-0.2055308310255081 -0.2055308310255081 -0.02525174355329752 -0.02525174355329752 -0.02525174355329752 -0.004681666732920836 -0.004681666732920836 -0.004681666732920836 -0.4236230387485517 
-0.4236230387485517 -0.4236230387485517 -0.4379598341554858 -0.4379598341554858 -0.4379598341554858 -0.1675746072796798 -0.1675746072796798 -0.1675746072796798 -0.1262569448565996 
-0.1262569448565996 -0.1262569448565996 0.1984833235598079 0.1984833235598079 0.1984833235598079 0.1677986404081322 0.1677986404081322 0.1677986404081322 0.6137991726723565 
0.6137991726723565 0.6137991726723565 0.5939074480049069 0.5939074480049069 0.5939074480049069 0.5963175343946331 0.5963175343946331 0.5963175343946331 0.6219145195393477 
0.6219145195393477 0.6219145195393477 0.4249522709155478 0.4249522709155478 0.4249522709155478 0.3972038854772615 0.3972038854772615 0.3972038854772615 -0.1113741090742843 
-0.1113741090742843 -0.1113741090742843 -0.09860220507467249 -0.09860220507467249 -0.09860220507467249 -0.4029514067448382 -0.4029514067448382 -0.4029514067448382 -0.3850263007439356 
-0.3850263007439356 -0.3850263007439356 -0.4214681127738198 -0.4214681127738198 -0.4214681127738198 -0.4404140350020401 -0.4404140350020401 -0.4404140350020401 -0.07609987582671195 
-0.07609987582671195 -0.07609987582671195 -0.09369388638055579 -0.09369388638055579 -0.09369388638055579 -0.7174294147901361 -0.7174294147901361 -0.7174294147901361 -0.7208303758193578 
-0.7208303758193578 -0.7208303758193578 0.3362176112398019 0.3362176112398019 0.3362176112398019 0.323996731893167 0.323996731893167 0.323996731893167 0.9582283391619968 
0.9582283391619968 0.9582283391619968 0.9580926196228992 0.9580926196228992 0.9580926196228992 0.5168406696123057 0.5168406696123057 0.5168406696123057 0.4825662755645181 
0.4825662755645181 0.4825662755645181 0.02307611003899116 0.02307611003899116 0.02307611003899116 -0.02744306515433106 -0.02744306515433106 -0.02744306515433106 -0.3394628147593004 
-0.3394628147593004 -0.3394628147593004 -0.3778084185711109 -0.3778084185711109 -0.3778084185711109 0.5025032872883493 0.5025032872883493 0.5025032872883493 0.5061450383477855 
0.5061450383477855 0.5061450383477855 0.05247049740764648 0.05247049740764648 0.05247049740764648 0.06078252227256152 0.06078252227256152 0.06078252227256152 0.7875781382065068 
0.7875781382065068 0.7875781382065068 0.7831424485395219 0.7831424485395219 0.7831424485395219 -0.2631247520319426 -0.2631247520319426 -0.2631247520319426 -0.2728511542992576 
-0.2728511542992576 -0.2728511542992576 0.11370863394026 0.11370863394026 0.11370863394026 0.08174371821940035 0.08174371821940035 0.08174371821940035 0.8516178515963012 
0.8516178515963012 0.8516178515963012 0.8270638696052908 0.8270638696052908 0.8270638696052908 -0.05579024947628138 -0.05579024947628138 -0.05579024947628138 -0.10509900269907 
-0.10509900269907 -0.10509900269907 0.1168574346004369 0.1168574346004369 0.1168574346004369 0.1588055459094349 0.1588055459094349 0.1588055459094349 0.1707267824803596 
0.1707267824803596 0.1707267824803596 0.144727390264546 0.144727390264546 0.144727390264546 -0.09932400195642702 -0.09932400195642702 -0.09932400195642702 -0.09325845001792982 
-0.09325845001792982 -0.09325845001792982 -0.0004472532979585927 -0.0004472532979585927 -0.0004472532979585927 -0.002670232312651631 -0.002670232312651631 -0.002670232312651631 0.5628399038684304 
0.5628399038684304 0.5628399038684304 0.5712918498269145 0.5712918498269145 0.5712918498269145 -0.02634202892585495 -0.02634202892585495 -0.02634202892585495 -0.04580788510616133 
-0.04580788510616133 -0.04580788510616133 0.40169274466239 0.40169274466239 0.40169274466239 0.3678367945690027 0.3678367945690027 0.3678367945690027 0.08363178540720946 
0.08363178540720946 0.08363178540720946 0.066944344231603 0.066944344231603 0.066944344231603 0.4110917972698989 0.4110917972698989 0.4110917972698989 0.4438474173347375 
0.4438474173347375 0.4438474173347375 0.4597423962322851 0.4597423962322851 0.4597423962322851 0.4210517158366257 0.4210517158366257 0.4210517158366257 0.2513485074818662 
0.2513485074818662 0.2513485074818662 0.2290183186887786 0.2290183186887786 0.2290183186887786 -0.2883769768465573 -0.2883769768465573 -0.2883769768465573 -0.3196227870406112 
-0.3196227870406112 -0.3196227870406112 0.06939459956181802 0.06939459956181802 0.06939459956181802 0.04811121137821387 0.04811121137821387 0.04811121137821387 0.0528728896069859 
0.0528728896069859 0.0528728896069859 0.06211168345698259 0.06211168345698259 0.06211168345698259 -0.2420239690855103 -0.2420239690855103 -0.2420239690855103 -0.2731237256312404 
-0.2731237256312404 -0.2731237256312404 -0.2843231767454865 -0.2843231767454865 -0.2843231767454865 0.2324142591897348 0.2324142591897348 0.2324142591897348 0.2336558193138722 
0.2336558193138722 0.2336558193138722 0.2598934735530812 0.2598934735530812 0.2598934735530812 -0.8846923553624269 -0.8846923553624269 -0.8846923553624269 -0.8893759560166647 
-0.8893759560166647 -0.8893759560166647 -0.8669577349487066 -0.8669577349487066 -0.8669577349487066 -0.8092780535809322 -0.8092780535809322 -0.8092780535809322 -0.8041899444049809 
-0.8041899444049809 -0.8041899444049809 -0.783027220527162 -0.783027220527162 -0.783027220527162 -0.1238864011456827 -0.1238864011456827 -0.1238864011456827 -0.1136138424812735 
-0.1136138424812735 -0.1136138424812735 -0.1019537210155839 -0.1019537210155839 -0.1019537210155839 -0.5892007315621018 -0.5892007315621018 -0.5892007315621018 -0.5693356778846197 
-0.5693356778846197 -0.5693356778846197 -0.526143838385601 -0.526143838385601 -0.526143838385601 0.4820279389500501 0.4820279389500501 0.4820279389500501 -0.1848996443034959 
-0.1848996443034959 -0.1848996443034959 -0.1951183750773043 -0.1951183750773043 -0.1951183750773043 -0.1863810133365216 -0.1863810133365216 -0.1863810133365216 0.5997840932609384 
0.5997840932609384 0.5997840932609384 0.6063652835095569 0.6063652835095569 0.6063652835095569 0.5615915421608029 0.5615915421608029 0.5615915421608029 -0.1037043999477793 
-0.1037043999477793 -0.1037043999477793 -0.0869787337768836 -0.0869787337768836 -0.0869787337768836 -0.1116664570597724 -0.1116664570597724 -0.1116664570597724 -0.3793379117004204 
-0.3793379117004204 -0.3793379117004204 -0.3409615530499899 -0.3409615530499899 -0.3409615530499899 -0.3221396069977823 -0.3221396069977823 -0.3221396069977823 -0.5099216817181385 
-0.5099216817181385 -0.5099216817181385 -0.4916970096665568 -0.4916970096665568 -0.4916970096665568 -0.490713184759822 -0.490713184759822 -0.490713184759822 -0.4556232954216891 
-0.4556232954216891 -0.4556232954216891 -0.4364527391794543 -0.4364527391794543 -0.4364527391794543 -0.3779273006853295 -0.3779273006853295 -0.3779273006853295 -0.1338669187606257 
-0.1338669187606257 -0.1338669187606257 -0.1399063219389077 -0.1399063219389077 -0.1399063219389077 -0.1387510671920183 -0.1387510671920183 -0.1387510671920183 0.006686446963091857 
0.006686446963091857 0.006686446963091857 0.007077428746436654 0.007077428746436654 0.007077428746436654 -0.000759218575635046 -0.000759218575635046 -0.000759218575635046 -0.141831416323079 
-0.141831416323079 -0.141831416323079 -0.1287318223649412 -0.1287318223649412 -0.1287318223649412 -0.1129654255653444 -0.1129654255653444 -0.1129654255653444 -0.2371047091288508 
-0.2371047091288508 -0.2371047091288508 -0.2603082422053615 -0.2603082422053615 -0.2603082422053615 -0.2869463944569284 -0.2869463944569284 -0.2869463944569284 -0.3603311421994055 
-0.3603311421994055 -0.3603311421994055 -0.3825393906319194 -0.3825393906319194 -0.3825393906319194 -0.4011731228097955 -0.4011731228097955 -0.4011731228097955 -0.05533767050420627 
-0.05533767050420627 -0.05533767050420627 -0.0522319778814014 -0.0522319778814014 -0.0522319778814014 -0.06810665738329258 -0.06810665738329258 -0.06810665738329258 -0.0312679258248099 
-0.0312679258248099 -0.0312679258248099 -0.01976605038914531 -0.01976605038914531 -0.01976605038914531 -0.002734709156751205 -0.002734709156751205 -0.002734709156751205 0.6643618957453318 
0.6643618957453318 0.6643618957453318 0.6894316023876752 0.6894316023876752 0.6894316023876752 0.7066460200270624 0.7066460200270624 0.7066460200270624 0.455900681516188 
0.455900681516188 0.455900681516188 0.4373763869944933 0.4373763869944933 0.4373763869944933 0.4210938676896277 0.4210938676896277 0.4210938676896277 -0.5393157827576938 
-0.5393157827576938 -0.5393157827576938 -0.5243606991096563 -0.5243606991096563 -0.5243606991096563 -0.5041183568572206 -0.5041183568572206 -0.5041183568572206 0.4385435114257793 
0.4385435114257793 0.4385435114257793 0.4395843757358867 0.4395843757358867 0.4395843757358867 0.4385877765082263 0.4385877765082263 0.4385877765082263 -0.631408243601882 
-0.631408243601882 -0.631408243601882 -0.6125279550618704 -0.6125279550618704 -0.6125279550618704 -0.5969141595984535 -0.5969141595984535 -0.5969141595984535 -0.6871295893774928 
-0.6871295893774928 -0.6871295893774928 -0.6688977953671611 -0.6688977953671611 -0.6688977953671611 -0.6549644574898643 -0.6549644574898643 -0.6549644574898643 -0.05693162134591598 
-0.05693162134591598 -0.05693162134591598 -0.07256758159760179 -0.07256758159760179 -0.07256758159760179 -0.0630068823922118 -0.0630068823922118 -0.0630068823922118 -0.7907866563701315 
-0.7907866563701315 -0.7907866563701315 -0.7768836769185519 -0.7768836769185519 -0.7768836769185519 -0.7636973737152686 -0.7636973737152686 -0.7636973737152686 -0.2763342830440358 