Title = Triangle100
FileType = Solution
Variables = q
Zone T = Triangle100
ZoneType = FETriangle
Nodes = 99072
Elements = 33024
DataPacking = Block
StrandID = 6
SolutionTime = 0.5
0.526178882172744 0.526178882172744 0.526178882172744 0.5496154129182247 0.5496154129182247 0.5496154129182247 0.5600195128544724 0.5600195128544724 0.5600195128544724 0.6538505880978441 
0.6538505880978441 0.6538505880978441 0.6544936155804192 0.6544936155804192 0.6544936155804192 -0.7877003203481238 -0.7877003203481238 -0.7877003203481238 -0.7878350815571797 
-0.7878350815571797 -0.7878350815571797 -0.1063158174591169 -0.1063158174591169 -0.1063158174591169 -0.1004820528541824 -0.1004820528541824 -0.1004820528541824 0.2126059522756668 
0.2126059522756668 0.2126059522756668 0.2184625232429123 0.2184625232429123 0.2184625232429123 -0.0551420314341223 -0.0551420314341223 -0.0551420314341223 -0.03935282332700473 
-0.03935282332700473 -0.03935282332700473 0.3617264343507749 0.3617264343507749 0.3617264343507749 0.3481247912209798 0.3481247912209798 0.3481247912209798 -0.5432244748967621 
-0.5432244748967621 -0.5432244748967621 -0.5251666735862692 -0.5251666735862692 -0.5251666735862692 0.4516439796605424 0.4516439796605424 0.4516439796605424 0.4328886835237408 
0.4328886835237408 0.4328886835237408 -0.7712320387724249 -0.7712320387724249 -0.7712320387724249 -0.7693539030838068 -0.7693539030838068 -0.7693539030838068 -0.8031244550278817 
-0.8031244550278817 -0.8031244550278817 0.260094353336103 0.260094353336103 0.260094353336103 0.2779610192252552 0.2779610192252552 0.2779610192252552 -0.04591113451276003 
-0.04591113451276003 -0.04591113451276003 -0.0268045947489468 -0.0268045947489468 -0.0268045947489468 -0.1331627757995129 -0.1331627757995129 -0.1331627757995129 -0.1281240582100396 
-0.1281240582100396 -0.1281240582100396 -0.4035188482190577 -0.4035188482190577 -0.4035188482190577 -0.3798345250616926 -0.3798345250616926 -0.3798345250616926 0.3425430202029925 
0.3425430202029925 0.3425430202029925 0.3521497747952071 0.3521497747952071 0.3521497747952071 0.3581268185110246 0.3581268185110246 0.3581268185110246 0.3413093161571959 
0.3413093161571959 0.3413093161571959 0.3508482231523973 0.3508482231523973 0.3508482231523973 0.352341261198685 0.352341261198685 0.352341261198685 -0.6270756817631968 
-0.6270756817631968 -0.6270756817631968 -0.6265923739911337 -0.6265923739911337 -0.6265923739911337 -0.6212012784050172 -0.6212012784050172 -0.6212012784050172 -0.09592468848266975 
-0.09592468848266975 -0.09592468848266975 -0.07869097635424409 -0.07869097635424409 -0.07869097635424409 -0.06006857338089151 -0.06006857338089151 -0.06006857338089151 -0.6008258694870283 
-0.6008258694870283 -0.6008258694870283 -0.6147822130237188 -0.6147822130237188 -0.6147822130237188 -0.6294178319282457 -0.6294178319282457 -0.6294178319282457 -0.1612938255011955 
-0.1612938255011955 -0.1612938255011955 -0.149458118960182 -0.149458118960182 -0.149458118960182 -0.1397825955688978 -0.1397825955688978 -0.1397825955688978 0.09160916646776499 
0.09160916646776499 0.09160916646776499 0.08797880130358482 0.08797880130358482 0.08797880130358482 0.1013507114799756 0.1013507114799756 0.1013507114799756 0.07551254399429817 
0.07551254399429817 0.07551254399429817 0.0694211972603946 0.0694211972603946 0.0694211972603946 -0.2777219465069185 -0.2777219465069185 -0.2777219465069185 -0.2689530652459816 
-0.2689530652459816 -0.2689530652459816 0.2507882074681873 0.2507882074681873 0.2507882074681873 0.2827983087861108 0.2827983087861108 0.2827983087861108 0.8981771017162773 
0.8981771017162773 0.8981771017162773 0.8913865492424372 0.8913865492424372 0.8913865492424372 0.2285241785083081 0.2285241785083081 0.2285241785083081 0.2547238936886797 
0.2547238936886797 0.2547238936886797 -0.4739149405118865 -0.4739149405118865 -0.4739149405118865 -0.4492974440761688 -0.4492974440761688 -0.4492974440761688 -0.3731958404216823 
-0.3731958404216823 -0.3731958404216823 -0.3581161642684783 -0.3581161642684783 -0.3581161642684783 0.1543291627283116 0.1543291627283116 0.1543291627283116 0.1508044264915168 
0.1508044264915168 0.1508044264915168 -0.4412005619897946 -0.4412005619897946 -0.4412005619897946 -0.45162884068785 -0.45162884068785 -0.45162884068785 -0.7664469976575218 
-0.7664469976575218 -0.7664469976575218 -0.7858807736037284 -0.7858807736037284 -0.7858807736037284 0.01987238560595213 0.01987238560595213 0.01987238560595213 0.009895838234346789 
0.009895838234346789 0.009895838234346789 -0.4558514134183632 -0.4558514134183632 -0.4558514134183632 -0.4838925312509577 -0.4838925312509577 -0.4838925312509577 0.8550164983140898 
0.8550164983140898 0.8550164983140898 0.8474511303666528 0.8474511303666528 0.8474511303666528 -0.2569357193896759 -0.2569357193896759 -0.2569357193896759 -0.2519211783758182 
-0.2519211783758182 -0.2519211783758182 0.7627931473538045 0.7627931473538045 0.7627931473538045 0.7726193563668766 0.7726193563668766 0.7726193563668766 0.8655074421012507 
0.8655074421012507 0.8655074421012507 0.8733355990230449 0.8733355990230449 0.8733355990230449 -0.7649661664113384 -0.7649661664113384 -0.7649661664113384 -0.767625588830976 
-0.767625588830976 -0.767625588830976 -0.008589362951078854 -0.008589362951078854 -0.008589362951078854 -0.001605915032116753 -0.001605915032116753 -0.001605915032116753 -0.5958956229362903 
-0.5958956229362903 -0.5958956229362903 -0.5843492582434631 -0.5843492582434631 -0.5843492582434631 0.6714092308147187 0.6714092308147187 0.6714092308147187 0.6620609437742774 
0.6620609437742774 0.6620609437742774 0.3428233687610386 0.3428233687610386 0.3428233687610386 0.1250800440822565 0.1250800440822565 0.1250800440822565 0.1768528604984272 
0.1768528604984272 0.1768528604984272 0.4395197460839961 0.4395197460839961 0.4395197460839961 0.3944815335264063 0.3944815335264063 0.3944815335264063 0.6408745210152329 
0.6408745210152329 0.6408745210152329 0.6280509142489408 0.6280509142489408 0.6280509142489408 0.07896323345596384 0.07896323345596384 0.07896323345596384 0.1482949337577347 
0.1482949337577347 0.1482949337577347 0.2830850707323043 0.2830850707323043 0.2830850707323043 0.3122425039241527 0.3122425039241527 0.3122425039241527 -0.5996571363589281 
-0.5996571363589281 -0.5996571363589281 -0.6261478828746435 -0.6261478828746435 -0.6261478828746435 0.05507125683824791 0.05507125683824791 0.05507125683824791 0.1080388649052053 
0.1080388649052053 0.1080388649052053 0.4567787506557608 0.4567787506557608 0.4567787506557608 0.4938635400172127 0.4938635400172127 0.4938635400172127 0.5026809446297847 
0.5026809446297847 0.5026809446297847 0.5290858059601516 0.5290858059601516 0.5290858059601516 -0.707292707486325 -0.707292707486325 -0.707292707486325 -0.7327198258849108 
-0.7327198258849108 -0.7327198258849108 -0.3779649577602623 -0.3779649577602623 -0.3779649577602623 -0.4000112820105859 -0.4000112820105859 -0.4000112820105859 0.8069142222896094 
0.8069142222896094 0.8069142222896094 0.8307192936804704 0.8307192936804704 0.8307192936804704 0.0921980066952385 0.0921980066952385 0.0921980066952385 0.07206224775645385 
0.07206224775645385 0.07206224775645385 -0.07870937254821717 -0.07870937254821717 -0.07870937254821717 -0.08420030994162116 -0.08420030994162116 -0.08420030994162116 0.7969242374644799 
0.7969242374644799 0.7969242374644799 0.801011579203873 0.801011579203873 0.801011579203873 0.1008307686359776 0.1008307686359776 0.1008307686359776 0.07887126159796209 
0.07887126159796209 0.07887126159796209 0.02214372226424148 0.02214372226424148 0.02214372226424148 0.01942542391823273 0.01942542391823273 0.01942542391823273 0.01655583803214903 
0.01655583803214903 0.01655583803214903 -0.1405126089027618 -0.1405126089027618 -0.1405126089027618 -0.136983072603356 -0.136983072603356 -0.136983072603356 -0.1080072772778782 
-0.1080072772778782 -0.1080072772778782 -0.490426780356736 -0.490426780356736 -0.490426780356736 -0.4940863303972923 -0.4940863303972923 -0.4940863303972923 -0.4915222751569027 
-0.4915222751569027 -0.4915222751569027 0.7558415128327974 0.7558415128327974 0.7558415128327974 0.7659241770428579 0.7659241770428579 0.7659241770428579 0.7784457533592244 
0.7784457533592244 0.7784457533592244 0.0843898635816345 0.0843898635816345 0.0843898635816345 0.09099749462571421 0.09099749462571421 0.09099749462571421 0.0846639533554516 
0.0846639533554516 0.0846639533554516 -0.1301947575609796 -0.1301947575609796 -0.1301947575609796 -0.1029742077530652 -0.1029742077530652 -0.1029742077530652 0.5916800734548202 
0.5916800734548202 0.5916800734548202 0.607178499569629 0.607178499569629 0.607178499569629 0.6250135624332467 0.6250135624332467 0.6250135624332467 0.31676870457499 
0.31676870457499 0.31676870457499 0.2999070806061956 0.2999070806061956 0.2999070806061956 0.3072045437456036 0.3072045437456036 0.3072045437456036 -0.6908711723284426 
-0.6908711723284426 -0.6908711723284426 -0.6934874871699717 -0.6934874871699717 -0.6934874871699717 -0.6878011833314167 -0.6878011833314167 -0.6878011833314167 0.8629089047211301 
0.8629089047211301 0.8629089047211301 0.870000016259554 0.870000016259554 0.870000016259554 0.8600489857212593 0.8600489857212593 0.8600489857212593 -0.682933840542028 
-0.682933840542028 -0.682933840542028 -0.6934033983451614 -0.6934033983451614 -0.6934033983451614 -0.7077638661325169 -0.7077638661325169 -0.7077638661325169 0.5098566029859717 
0.5098566029859717 0.5098566029859717 0.537502279346785 0.537502279346785 0.537502279346785 0.5471212358982624 0.5471212358982624 0.5471212358982624 -0.05502974970056683 
-0.05502974970056683 -0.05502974970056683 -0.06793096855321243 -0.06793096855321243 -0.06793096855321243 -0.07553089739886351 -0.07553089739886351 -0.07553089739886351 0.01468251228543374 
0.01468251228543374 0.01468251228543374 0.01290560651879735 0.01290560651879735 0.01290560651879735 -0.2266280210678469 -0.2266280210678469 -0.2266280210678469 -0.2275029942630681 
-0.2275029942630681 -0.2275029942630681 -0.2345128728441715 -0.2345128728441715 -0.2345128728441715 -0.4637687924378425 -0.4637687924378425 -0.4637687924378425 -0.4579430391311668 
-0.4579430391311668 -0.4579430391311668 -0.0148491310876734 -0.0148491310876734 -0.0148491310876734 -0.009132987357409205 -0.009132987357409205 -0.009132987357409205 -0.8442897433886869 
-0.8442897433886869 -0.8442897433886869 -0.8337758643433737 -0.8337758643433737 -0.8337758643433737 0.2609965209908351 0.2609965209908351 0.2609965209908351 0.2312026709244285 
0.2312026709244285 0.2312026709244285 0.2809694944495543 0.2809694944495543 0.2809694944495543 0.2986912248900579 0.2986912248900579 0.2986912248900579 -0.6693415119834911 
-0.6693415119834911 -0.6693415119834911 -0.6793388768040699 -0.6793388768040699 -0.6793388768040699 0.3917838490142442 0.3917838490142442 0.3917838490142442 0.3804486747622425 
0.3804486747622425 0.3804486747622425 0.04037381618073962 0.04037381618073962 0.04037381618073962 0.04750956960013086 0.04750956960013086 0.04750956960013086 0.1074554116477813 
0.1074554116477813 0.1074554116477813 0.07852620519648232 0.07852620519648232 0.07852620519648232 0.709883909804089 0.709883909804089 0.709883909804089 0.7019892076818435 
0.7019892076818435 0.7019892076818435 -0.5092451294827863 -0.5092451294827863 -0.5092451294827863 -0.545218767513888 -0.545218767513888 -0.545218767513888 0.1953303542689965 
0.1953303542689965 0.1953303542689965 0.2067904858587769 0.2067904858587769 0.2067904858587769 -0.8096703478074303 -0.8096703478074303 -0.8096703478074303 -0.8005916386693306 
-0.8005916386693306 -0.8005916386693306 0.8013262582830297 0.8013262582830297 0.8013262582830297 0.7778589995537235 0.7778589995537235 0.7778589995537235 0.05999767555017435 
0.05999767555017435 0.05999767555017435 0.06981970143596919 0.06981970143596919 0.06981970143596919 0.65235745948242 0.65235745948242 0.65235745948242 0.6486086117915119 
0.6486086117915119 0.6486086117915119 0.6644095854628478 0.6644095854628478 0.6644095854628478 0.6521654850634701 0.6521654850634701 0.6521654850634701 -0.5372214117957979 
-0.5372214117957979 -0.5372214117957979 -0.5111324928550707 -0.5111324928550707 -0.5111324928550707 0.07084479264165408 0.07084479264165408 0.07084479264165408 0.08180621893893358 
0.08180621893893358 0.08180621893893358 -0.6233851122944187 -0.6233851122944187 -0.6233851122944187 -0.5859366203353145 -0.5859366203353145 -0.5859366203353145 0.2704531014551284 
0.2704531014551284 0.2704531014551284 0.2591088297353453 0.2591088297353453 0.2591088297353453 0.2599032065102755 0.2599032065102755 0.2599032065102755 0.2502267816751205 
0.2502267816751205 0.2502267816751205 0.011215783142152 0.011215783142152 0.011215783142152 0.01868832583922914 0.01868832583922914 0.01868832583922914 0.1940904013305031 
0.1940904013305031 0.1940904013305031 0.2114536395523024 0.2114536395523024 0.2114536395523024 0.7387063631890097 0.7387063631890097 0.7387063631890097 0.7585150792289876 
0.7585150792289876 0.7585150792289876 -0.5093128435173171 -0.5093128435173171 -0.5093128435173171 -0.5343046981731583 -0.5343046981731583 -0.5343046981731583 -0.07938416128395842 
-0.07938416128395842 -0.07938416128395842 -0.1191083006566468 -0.1191083006566468 -0.1191083006566468 0.8901150509181877 0.8901150509181877 0.8901150509181877 0.8828292591420808 
0.8828292591420808 0.8828292591420808 -0.6289321309839985 -0.6289321309839985 -0.6289321309839985 -0.6333299652678193 -0.6333299652678193 -0.6333299652678193 -0.6248466468539849 
-0.6248466468539849 -0.6248466468539849 -0.6438562135641184 -0.6438562135641184 -0.6438562135641184 -0.2729141840910816 -0.2729141840910816 -0.2729141840910816 -0.2885001420083007 
-0.2885001420083007 -0.2885001420083007 -0.08532629066819371 -0.08532629066819371 -0.08532629066819371 -0.06955910864725705 -0.06955910864725705 -0.06955910864725705 -0.5973708111060068 
-0.5973708111060068 -0.5973708111060068 -0.5909158425789607 -0.5909158425789607 -0.5909158425789607 0.03177621728532775 0.03177621728532775 0.03177621728532775 0.0400125282472471 
0.0400125282472471 0.0400125282472471 -0.6287071985062843 -0.6287071985062843 -0.6287071985062843 -0.9096603655923721 -0.9096603655923721 -0.9096603655923721 -0.9067184619138324 
-0.9067184619138324 -0.9067184619138324 -0.2070691245041488 -0.2070691245041488 -0.2070691245041488 -0.1800250923830331 -0.1800250923830331 -0.1800250923830331 -0.3179741364993124 
-0.3179741364993124 -0.3179741364993124 -0.3097525160093237 -0.3097525160093237 -0.3097525160093237 -0.2358171642077067 -0.2358171642077067 -0.2358171642077067 -0.2441575126337892 
-0.2441575126337892 -0.2441575126337892 -0.4150095018181822 -0.4150095018181822 -0.4150095018181822 -0.3938959808568188 -0.3938959808568188 -0.3938959808568188 -0.4100828746598613 
-0.4100828746598613 -0.4100828746598613 -0.3887594168498096 -0.3887594168498096 -0.3887594168498096 0.2851719103665629 0.2851719103665629 0.2851719103665629 0.3013926501477365 
0.3013926501477365 0.3013926501477365 -0.2106145233426424 -0.2106145233426424 -0.2106145233426424 -0.2235175576563697 -0.2235175576563697 -0.2235175576563697 -0.5118125368572386 
-0.5118125368572386 -0.5118125368572386 -0.5232552092840819 -0.5232552092840819 -0.5232552092840819 -0.149072519960946 -0.149072519960946 -0.149072519960946 -0.1298375636727775 
-0.1298375636727775 -0.1298375636727775 -0.1227809169919678 -0.1227809169919678 -0.1227809169919678 -0.104804318721981 -0.104804318721981 -0.104804318721981 -0.09142545165041174 
-0.09142545165041174 -0.09142545165041174 0.1309905729127154 0.1309905729127154 0.1309905729127154 0.1448248597566942 0.1448248597566942 0.1448248597566942 -0.8125413272522121 
-0.8125413272522121 -0.8125413272522121 -0.8200358177540403 -0.8200358177540403 -0.8200358177540403 -0.003630530113889321 -0.003630530113889321 -0.003630530113889321 -0.004482112910815773 
-0.004482112910815773 -0.004482112910815773 0.3299763329660138 0.3299763329660138 0.3299763329660138 0.3092482350145319 0.3092482350145319 0.3092482350145319 0.1148431494108221 
0.1148431494108221 0.1148431494108221 -0.0378731494190362 -0.0378731494190362 -0.0378731494190362 -0.04999678811116144 -0.04999678811116144 -0.04999678811116144 -0.7404074858759 
-0.7404074858759 -0.7404074858759 -0.7243681878240068 -0.7243681878240068 -0.7243681878240068 -0.1387556468572584 -0.1387556468572584 -0.1387556468572584 -0.1223141588459041 
-0.1223141588459041 -0.1223141588459041 0.0845629492012821 0.0845629492012821 0.0845629492012821 0.08471026890173547 0.08471026890173547 0.08471026890173547 0.4887005137812828 
0.4887005137812828 0.4887005137812828 0.5069574084985411 0.5069574084985411 0.5069574084985411 0.2550520068241675 0.2550520068241675 0.2550520068241675 0.2604264976533927 
0.2604264976533927 0.2604264976533927 -0.8597604110544214 -0.8597604110544214 -0.8597604110544214 -0.8509791411695609 -0.8509791411695609 -0.8509791411695609 0.8196237021371084 
0.8196237021371084 0.8196237021371084 0.8177439529463595 0.8177439529463595 0.8177439529463595 -0.1736255873015363 -0.1736255873015363 -0.1736255873015363 -0.1663772708373438 
-0.1663772708373438 -0.1663772708373438 -0.876594644568786 -0.876594644568786 -0.876594644568786 -0.8792351789994177 -0.8792351789994177 -0.8792351789994177 0.9024930375500274 
0.9024930375500274 0.9024930375500274 0.9048156374804598 0.9048156374804598 0.9048156374804598 -0.4209914866655481 -0.4209914866655481 -0.4209914866655481 -0.4361480823120891 
-0.4361480823120891 -0.4361480823120891 -0.8331367456361101 -0.8331367456361101 -0.8331367456361101 -0.8236409854377982 -0.8236409854377982 -0.8236409854377982 0.8860054526775507 
0.8860054526775507 0.8860054526775507 0.8940086824477851 0.8940086824477851 0.8940086824477851 -0.09530595840816747 -0.09530595840816747 -0.09530595840816747 -0.05002181649700414 
-0.05002181649700414 -0.05002181649700414 0.5304785924483185 0.5304785924483185 0.5304785924483185 0.4579719189893918 0.4579719189893918 0.4579719189893918 0.4949404888720599 
0.4949404888720599 0.4949404888720599 0.05264977454351012 0.05264977454351012 0.05264977454351012 0.04339541872953578 0.04339541872953578 0.04339541872953578 0.1214749428468967 
0.1214749428468967 0.1214749428468967 0.1330138569986129 0.1330138569986129 0.1330138569986129 0.3557997741404911 0.3557997741404911 0.3557997741404911 0.3215061361201595 
0.3215061361201595 0.3215061361201595 -0.5746164750527911 -0.5746164750527911 -0.5746164750527911 -0.585933954546376 -0.585933954546376 -0.585933954546376 -0.1090421857789978 
-0.1090421857789978 -0.1090421857789978 -0.1548898012300575 -0.1548898012300575 -0.1548898012300575 -0.1405907231934474 -0.1405907231934474 -0.1405907231934474 -0.1511769903500437 
-0.1511769903500437 -0.1511769903500437 -0.05510234072075935 -0.05510234072075935 -0.05510234072075935 -0.03180314417908592 -0.03180314417908592 -0.03180314417908592 -0.2988854106048874 
-0.2988854106048874 -0.2988854106048874 -0.2599715905330094 -0.2599715905330094 -0.2599715905330094 0.6967836283945494 0.6967836283945494 0.6967836283945494 0.6564356866041752 
0.6564356866041752 0.6564356866041752 0.1966931036541894 0.1966931036541894 0.1966931036541894 0.2065193715409213 0.2065193715409213 0.2065193715409213 -0.9213288487559852 
-0.9213288487559852 -0.9213288487559852 -0.9200711406131585 -0.9200711406131585 -0.9200711406131585 0.7867553420468619 0.7867553420468619 0.7867553420468619 0.7770725257664558 
0.7770725257664558 0.7770725257664558 0.01533566807414237 0.01533566807414237 0.01533566807414237 0.04486018359159953 0.04486018359159953 0.04486018359159953 0.5508065094224341 
0.5508065094224341 0.5508065094224341 0.5825799383223377 0.5825799383223377 0.5825799383223377 0.8188790659149787 0.8188790659149787 0.8188790659149787 0.8379458418508194 
0.8379458418508194 0.8379458418508194 0.3778283088381669 0.3778283088381669 0.3778283088381669 0.2001964892819666 0.2001964892819666 0.2001964892819666 0.2062921408509787 
0.2062921408509787 0.2062921408509787 0.2603115616166933 0.2603115616166933 0.2603115616166933 0.27052795316008 0.27052795316008 0.27052795316008 -0.2531019665607396 
-0.2531019665607396 -0.2531019665607396 -0.2563524307395354 -0.2563524307395354 -0.2563524307395354 0.06447148125971761 0.06447148125971761 0.06447148125971761 0.06591975951099974 
0.06591975951099974 0.06591975951099974 -0.3070264306617619 -0.3070264306617619 -0.3070264306617619 -0.3315589148004248 -0.3315589148004248 -0.3315589148004248 0.03464223372102802 
0.03464223372102802 0.03464223372102802 0.04185982112874888 0.04185982112874888 0.04185982112874888 0.6661506718601685 0.6661506718601685 0.6661506718601685 0.6987665513226605 
0.6987665513226605 0.6987665513226605 0.3103090518494523 0.3103090518494523 0.3103090518494523 0.3475676441663698 0.3475676441663698 0.3475676441663698 -0.6328186282706177 
-0.6328186282706177 -0.6328186282706177 -0.6270356950349155 -0.6270356950349155 -0.6270356950349155 0.5915681655890361 0.5915681655890361 0.5915681655890361 0.5648055891961021 
0.5648055891961021 0.5648055891961021 -0.07608938244662086 -0.07608938244662086 -0.07608938244662086 -0.0962241889141295 -0.0962241889141295 -0.0962241889141295 -0.8194440107217372 
-0.8194440107217372 -0.8194440107217372 -0.8186953304042461 -0.8186953304042461 -0.8186953304042461 -0.006728060657768886 -0.006728060657768886 -0.006728060657768886 -0.01468859801522572 
-0.01468859801522572 -0.01468859801522572 0.3940142535560135 0.3940142535560135 0.3940142535560135 0.3892853922315525 0.3892853922315525 0.3892853922315525 0.1513351574305085 
0.1513351574305085 0.1513351574305085 0.191604831882199 0.191604831882199 0.191604831882199 0.438008679038529 0.438008679038529 0.438008679038529 0.4658167986243261 
0.4658167986243261 0.4658167986243261 -0.6092549376956824 -0.6092549376956824 -0.6092549376956824 -0.5836018371085777 -0.5836018371085777 -0.5836018371085777 0.1761101311528594 
0.1761101311528594 0.1761101311528594 0.1611830502555376 0.1611830502555376 0.1611830502555376 0.7226794148596725 0.7226794148596725 0.7226794148596725 0.7007567470097917 
0.7007567470097917 0.7007567470097917 -0.006778610165096587 -0.006778610165096587 -0.006778610165096587 -0.0007020855762366765 -0.0007020855762366765 -0.0007020855762366765 -0.094964647726077 
-0.094964647726077 -0.094964647726077 -0.1205214972653688 -0.1205214972653688 -0.1205214972653688 0.2611464697077714 0.2611464697077714 0.2611464697077714 0.2584907081984778 
0.2584907081984778 0.2584907081984778 0.1145410598690661 0.1145410598690661 0.1145410598690661 0.1164547374654678 0.1164547374654678 0.1164547374654678 0.8287200944442242 
0.8287200944442242 0.8287200944442242 0.8434272206061643 0.8434272206061643 0.8434272206061643 0.5751628073385886 0.5751628073385886 0.5751628073385886 0.5669458919075973 
0.5669458919075973 0.5669458919075973 -0.7744713047619118 -0.7744713047619118 -0.7744713047619118 -0.8008804882767691 -0.8008804882767691 -0.8008804882767691 0.08190530445485807 
0.08190530445485807 0.08190530445485807 0.06661043057462424 0.06661043057462424 0.06661043057462424 0.1448911989313423 0.1448911989313423 0.1448911989313423 0.1125184277577367 
0.1125184277577367 0.1125184277577367 0.7899793449051049 0.7899793449051049 0.7899793449051049 0.8120659349531725 0.8120659349531725 0.8120659349531725 -0.6122267167154178 
-0.6122267167154178 -0.6122267167154178 -0.6430239855336832 -0.6430239855336832 -0.6430239855336832 -0.7854950553299097 -0.7854950553299097 -0.7854950553299097 -0.7736937549792812 
-0.7736937549792812 -0.7736937549792812 0.3101143280971003 0.3101143280971003 0.3101143280971003 0.2752290750037421 0.2752290750037421 0.2752290750037421 -0.1481983368415124 
-0.1481983368415124 -0.1481983368415124 -0.1824980941654658 -0.1824980941654658 -0.1824980941654658 0.503867646799754 0.503867646799754 0.503867646799754 0.4726859661904297 
0.4726859661904297 0.4726859661904297 -0.5708165393528806 -0.5708165393528806 -0.5708165393528806 -0.55790252060626 -0.55790252060626 -0.55790252060626 -0.002362608654854362 
-0.002362608654854362 -0.002362608654854362 0.00277786144919524 0.00277786144919524 0.00277786144919524 0.8331311761203027 0.8331311761203027 0.8331311761203027 0.8441212064140219 
0.8441212064140219 0.8441212064140219 -0.008024730374805788 -0.008024730374805788 -0.008024730374805788 -0.02115149959153283 -0.02115149959153283 -0.02115149959153283 -0.8552466430968158 
-0.8552466430968158 -0.8552466430968158 -0.8629575222424118 -0.8629575222424118 -0.8629575222424118 0.06958645745794817 0.06958645745794817 0.06958645745794817 0.04003355959373613 
0.04003355959373613 0.04003355959373613 -0.9025078505912695 -0.9025078505912695 -0.9025078505912695 -0.9141649823806397 -0.9141649823806397 -0.9141649823806397 0.2434871082438511 
0.2434871082438511 0.2434871082438511 0.2824813265014411 0.2824813265014411 0.2824813265014411 -0.07372699285210654 -0.07372699285210654 -0.07372699285210654 -0.1061793139481816 
-0.1061793139481816 -0.1061793139481816 0.8221494273610822 0.8221494273610822 0.8221494273610822 0.8395638466284889 0.8395638466284889 0.8395638466284889 0.8430880679562232 
0.8430880679562232 0.8430880679562232 0.8436330066143793 0.8436330066143793 0.8436330066143793 -0.09276825693918424 -0.09276825693918424 -0.09276825693918424 -0.09227403856843786 
-0.09227403856843786 -0.09227403856843786 -0.07689958499088642 -0.07689958499088642 -0.07689958499088642 -0.8896567782914715 -0.8896567782914715 -0.8896567782914715 -0.8976232214442219 
-0.8976232214442219 -0.8976232214442219 -0.8960930239009142 -0.8960930239009142 -0.8960930239009142 -0.1241755520410241 -0.1241755520410241 -0.1241755520410241 -0.1145629600327272 
-0.1145629600327272 -0.1145629600327272 -0.1505892560878076 -0.1505892560878076 -0.1505892560878076 -0.0007467757128658602 -0.0007467757128658602 -0.0007467757128658602 -0.01258265641832444 
-0.01258265641832444 -0.01258265641832444 -0.02107711601399412 -0.02107711601399412 -0.02107711601399412 -0.2714996613478643 -0.2714996613478643 -0.2714996613478643 -0.2906106656123406 
-0.2906106656123406 -0.2906106656123406 -0.2844869791654044 -0.2844869791654044 -0.2844869791654044 0.6217310471175432 0.6217310471175432 0.6217310471175432 0.5999218723874112 
0.5999218723874112 0.5999218723874112 0.619749731900868 0.619749731900868 0.619749731900868 0.01783347193647777 0.01783347193647777 0.01783347193647777 0.7433349613314878 
0.7433349613314878 0.7433349613314878 0.7334034458728329 0.7334034458728329 0.7334034458728329 0.7210518397269743 0.7210518397269743 0.7210518397269743 -0.7036782193562662 
-0.7036782193562662 -0.7036782193562662 -0.719692840904716 -0.719692840904716 -0.719692840904716 -0.7487155794839292 -0.7487155794839292 -0.7487155794839292 0.5684868450810673 
0.5684868450810673 0.5684868450810673 0.540965621225276 0.540965621225276 0.540965621225276 0.5500183014595511 0.5500183014595511 0.5500183014595511 0.8301878501631835 
0.8301878501631835 0.8301878501631835 0.8198613690004579 0.8198613690004579 0.8198613690004579 0.837973765397088 0.837973765397088 0.837973765397088 -0.1957830623920273 
-0.1957830623920273 -0.1957830623920273 -0.1903197002589301 -0.1903197002589301 -0.1903197002589301 -0.1751265744783276 -0.1751265744783276 -0.1751265744783276 -0.6157223818891111 
-0.6157223818891111 -0.6157223818891111 -0.6246192680493482 -0.6246192680493482 -0.6246192680493482 -0.6778144875950314 -0.6778144875950314 -0.6778144875950314 0.1672600901283798 
0.1672600901283798 0.1672600901283798 0.1492886414683405 0.1492886414683405 0.1492886414683405 0.1401960329964627 0.1401960329964627 0.1401960329964627 -0.6215157868874451 
-0.6215157868874451 -0.6215157868874451 -0.6350673338366539 -0.6350673338366539 -0.6350673338366539 -0.6104511899256311 -0.6104511899256311 -0.6104511899256311 0.6364135341124183 
0.6364135341124183 0.6364135341124183 0.6164904354806136 0.6164904354806136 0.6164904354806136 0.598278314778376 0.598278314778376 0.598278314778376 0.8628160126055446 
0.8628160126055446 0.8628160126055446 0.8466129177153068 0.8466129177153068 0.8466129177153068 0.8326906018093279 0.8326906018093279 0.8326906018093279 -0.09416964425065721 
-0.09416964425065721 -0.09416964425065721 -0.09333203518273298 -0.09333203518273298 -0.09333203518273298 -0.08616482567186264 -0.08616482567186264 -0.08616482567186264 -0.443298610307496 
-0.443298610307496 -0.443298610307496 -0.4385390187260854 -0.4385390187260854 -0.4385390187260854 -0.4218376251306719 -0.4218376251306719 -0.4218376251306719 0.2834346118031468 
0.2834346118031468 0.2834346118031468 0.2884545890370873 0.2884545890370873 0.2884545890370873 0.3056899961867645 0.3056899961867645 0.3056899961867645 -0.09072164722707722 
-0.09072164722707722 -0.09072164722707722 -0.08312159485500743 -0.08312159485500743 -0.08312159485500743 -0.05996818073521271 -0.05996818073521271 -0.05996818073521271 0.00640470381664611 
0.00640470381664611 0.00640470381664611 0.01985031072420371 0.01985031072420371 0.01985031072420371 0.03633283866508634 0.03633283866508634 0.03633283866508634 0.140948299086226 
0.140948299086226 0.140948299086226 0.1233098492596059 0.1233098492596059 0.1233098492596059 0.1042659034716003 0.1042659034716003 0.1042659034716003 -0.8927445439010816 
-0.8927445439010816 -0.8927445439010816 -0.8962171990898522 -0.8962171990898522 -0.8962171990898522 -0.901855335658416 -0.901855335658416 -0.901855335658416 -0.4189523274095273 
-0.4189523274095273 -0.4189523274095273 -0.4242439207046971 -0.4242439207046971 -0.4242439207046971 -0.438437850854424 -0.438437850854424 -0.438437850854424 0.1548265744940697 
0.1548265744940697 0.1548265744940697 0.1295320699308989 0.1295320699308989 0.1295320699308989 0.118794128420097 0.118794128420097 0.118794128420097 0.6428926977826774 
0.6428926977826774 0.6428926977826774 0.6541354029257423 0.6541354029257423 0.6541354029257423 0.6378430621209059 0.6378430621209059 0.6378430621209059 0.3214933357346641 
0.3214933357346641 0.3214933357346641 0.3563558887806093 0.3563558887806093 0.3563558887806093 0.3455492578305364 0.3455492578305364 0.3455492578305364 -0.2199389599425259 