Title = Triangle100
FileType = Solution
Variables = q
Zone T = Triangle100
ZoneType = FETriangle
Nodes = 99072
Elements = 33024
DataPacking = Block
StrandID = 4
SolutionTime = 0.3
0.00246473383763661 0.00246473383763661 0.00246473383763661 -0.0037081652491016 -0.0037081652491016 -0.0037081652491016 -0.003656810915302601 -0.003656810915302601 -0.003656810915302601 0.8010338904545763 
0.8010338904545763 0.8010338904545763 0.8081142158367478 0.8081142158367478 0.8081142158367478 -0.3131784487766878 -0.3131784487766878 -0.3131784487766878 -0.2823535895927331 
-0.2823535895927331 -0.2823535895927331 0.1272518324771167 0.1272518324771167 0.1272518324771167 0.118772010225328 0.118772010225328 0.118772010225328 -0.2181916446316155 
-0.2181916446316155 -0.2181916446316155 -0.217766477185643 -0.217766477185643 -0.217766477185643 0.4725131129232277 0.4725131129232277 0.4725131129232277 0.5114469003295197 
0.5114469003295197 0.5114469003295197 0.7570355066947905 0.7570355066947905 0.7570355066947905 0.7628572333095122 0.7628572333095122 0.7628572333095122 -0.8688466247418221 
-0.8688466247418221 -0.8688466247418221 -0.8832694015189142 -0.8832694015189142 -0.8832694015189142 0.8569458164442897 0.8569458164442897 0.8569458164442897 0.8645950551345651 
0.8645950551345651 0.8645950551345651 0.09840460764402006 0.09840460764402006 0.09840460764402006 0.04249596308017926 0.04249596308017926 0.04249596308017926 0.008498008358885327 
0.008498008358885327 0.008498008358885327 -0.1722306493680681 -0.1722306493680681 -0.1722306493680681 -0.1445274504623555 -0.1445274504623555 -0.1445274504623555 0.179239986672406 
0.179239986672406 0.179239986672406 0.1690513626109403 0.1690513626109403 0.1690513626109403 0.04348204389735397 0.04348204389735397 0.04348204389735397 -0.003869560011772949 
-0.003869560011772949 -0.003869560011772949 0.09530422665982435 0.09530422665982435 0.09530422665982435 0.06889099782544392 0.06889099782544392 0.06889099782544392 -0.614519495598102 
-0.614519495598102 -0.614519495598102 -0.5939039310177572 -0.5939039310177572 -0.5939039310177572 -0.5804763112256082 -0.5804763112256082 -0.5804763112256082 -0.1195654369824371 
-0.1195654369824371 -0.1195654369824371 -0.1064181416030418 -0.1064181416030418 -0.1064181416030418 -0.1017277956989015 -0.1017277956989015 -0.1017277956989015 -0.1270229969098281 
-0.1270229969098281 -0.1270229969098281 -0.1188442308793766 -0.1188442308793766 -0.1188442308793766 -0.1405311152109509 -0.1405311152109509 -0.1405311152109509 0.5350592918460013 
0.5350592918460013 0.5350592918460013 0.5182149188928823 0.5182149188928823 0.5182149188928823 0.5152599545279354 0.5152599545279354 0.5152599545279354 -0.8504182857813676 
-0.8504182857813676 -0.8504182857813676 -0.8409728812009615 -0.8409728812009615 -0.8409728812009615 -0.8306038497016518 -0.8306038497016518 -0.8306038497016518 -0.8604574109755969 
-0.8604574109755969 -0.8604574109755969 -0.8526955909021918 -0.8526955909021918 -0.8526955909021918 -0.8484124249067506 -0.8484124249067506 -0.8484124249067506 -0.2577271743909603 
-0.2577271743909603 -0.2577271743909603 -0.248372460060354 -0.248372460060354 -0.248372460060354 -0.2032647202882895 -0.2032647202882895 -0.2032647202882895 -0.1477238546029001 
-0.1477238546029001 -0.1477238546029001 -0.1736449877734305 -0.1736449877734305 -0.1736449877734305 -0.1577228540674693 -0.1577228540674693 -0.1577228540674693 -0.1271608630007257 
-0.1271608630007257 -0.1271608630007257 -0.7283490497660817 -0.7283490497660817 -0.7283490497660817 -0.6964935518037803 -0.6964935518037803 -0.6964935518037803 0.262916825579418 
0.262916825579418 0.262916825579418 0.243460973958731 0.243460973958731 0.243460973958731 -0.0245973366906218 -0.0245973366906218 -0.0245973366906218 -0.06287051361933649 
-0.06287051361933649 -0.06287051361933649 -0.7029342082109739 -0.7029342082109739 -0.7029342082109739 -0.6918437651872585 -0.6918437651872585 -0.6918437651872585 0.04424085835581721 
0.04424085835581721 0.04424085835581721 0.04348810577639101 0.04348810577639101 0.04348810577639101 0.1903638522368368 0.1903638522368368 0.1903638522368368 0.1803929615853408 
0.1803929615853408 0.1803929615853408 -0.02353503742276393 -0.02353503742276393 -0.02353503742276393 -0.02069677268614887 -0.02069677268614887 -0.02069677268614887 -0.5090472468842531 
-0.5090472468842531 -0.5090472468842531 -0.5014101561124692 -0.5014101561124692 -0.5014101561124692 0.848940690908343 0.848940690908343 0.848940690908343 0.8394469857205241 
0.8394469857205241 0.8394469857205241 0.002291257390663396 0.002291257390663396 0.002291257390663396 0.008041579173626554 0.008041579173626554 0.008041579173626554 -0.07825300758400017 
-0.07825300758400017 -0.07825300758400017 -0.09675745035697204 -0.09675745035697204 -0.09675745035697204 0.1990921379825201 0.1990921379825201 0.1990921379825201 0.2015487792612477 
0.2015487792612477 0.2015487792612477 -0.2427572846731974 -0.2427572846731974 -0.2427572846731974 -0.2274098782847708 -0.2274098782847708 -0.2274098782847708 0.5547204267511889 
0.5547204267511889 0.5547204267511889 0.5392512043945135 0.5392512043945135 0.5392512043945135 0.0824820766614725 0.0824820766614725 0.0824820766614725 0.06074107971753447 
0.06074107971753447 0.06074107971753447 0.212757031468072 0.212757031468072 0.212757031468072 0.1746643304674202 0.1746643304674202 0.1746643304674202 -0.6887448717031123 
-0.6887448717031123 -0.6887448717031123 -0.7000034289466512 -0.7000034289466512 -0.7000034289466512 0.7951121238259999 0.7951121238259999 0.7951121238259999 0.8066498045055497 
0.8066498045055497 0.8066498045055497 0.05424368482776268 0.05424368482776268 0.05424368482776268 -0.2560416937023475 -0.2560416937023475 -0.2560416937023475 -0.2292220129406671 
-0.2292220129406671 -0.2292220129406671 0.8383878737692232 0.8383878737692232 0.8383878737692232 0.8589709565940895 0.8589709565940895 0.8589709565940895 0.7893611461743646 
0.7893611461743646 0.7893611461743646 0.7777543782522223 0.7777543782522223 0.7777543782522223 -0.1176022346899115 -0.1176022346899115 -0.1176022346899115 -0.09855344335000724 
-0.09855344335000724 -0.09855344335000724 0.7670946711108533 0.7670946711108533 0.7670946711108533 0.7673307717116612 0.7673307717116612 0.7673307717116612 -0.1353669758658631 
-0.1353669758658631 -0.1353669758658631 -0.173625351460934 -0.173625351460934 -0.173625351460934 -0.1799624297593516 -0.1799624297593516 -0.1799624297593516 -0.1584125575230895 
-0.1584125575230895 -0.1584125575230895 0.01633231121010981 0.01633231121010981 0.01633231121010981 0.005621615663281889 0.005621615663281889 0.005621615663281889 0.003584058476250295 
0.003584058476250295 0.003584058476250295 0.008749238419887981 0.008749238419887981 0.008749238419887981 -0.7639237650839706 -0.7639237650839706 -0.7639237650839706 -0.7376421774751175 
-0.7376421774751175 -0.7376421774751175 0.1206365017794074 0.1206365017794074 0.1206365017794074 0.1541735436406454 0.1541735436406454 0.1541735436406454 -0.156765831075491 
-0.156765831075491 -0.156765831075491 -0.1147356010024046 -0.1147356010024046 -0.1147356010024046 -0.7289908612283102 -0.7289908612283102 -0.7289908612283102 -0.7563270760122852 
-0.7563270760122852 -0.7563270760122852 0.09974261902455547 0.09974261902455547 0.09974261902455547 0.06765730052758614 0.06765730052758614 0.06765730052758614 -0.1555544098985815 
-0.1555544098985815 -0.1555544098985815 -0.1314844736638368 -0.1314844736638368 -0.1314844736638368 -0.1546186639463182 -0.1546186639463182 -0.1546186639463182 -0.1855309021332613 
-0.1855309021332613 -0.1855309021332613 0.4555384454797886 0.4555384454797886 0.4555384454797886 0.4680104037707653 0.4680104037707653 0.4680104037707653 0.4832882517414213 
0.4832882517414213 0.4832882517414213 0.3211023084414283 0.3211023084414283 0.3211023084414283 0.3194649614153557 0.3194649614153557 0.3194649614153557 0.3588558079612694 
0.3588558079612694 0.3588558079612694 -0.008780530869642537 -0.008780530869642537 -0.008780530869642537 -0.006960150730180776 -0.006960150730180776 -0.006960150730180776 -2.763533350033668e-05 
-2.763533350033668e-05 -2.763533350033668e-05 -0.05621988531390273 -0.05621988531390273 -0.05621988531390273 -0.04919604616811411 -0.04919604616811411 -0.04919604616811411 -0.04318117301460926 
-0.04318117301460926 -0.04318117301460926 -0.1744716350753109 -0.1744716350753109 -0.1744716350753109 -0.1598214451943094 -0.1598214451943094 -0.1598214451943094 -0.1459659391486271 
-0.1459659391486271 -0.1459659391486271 0.5481236764273619 0.5481236764273619 0.5481236764273619 0.5753904119018676 0.5753904119018676 0.5753904119018676 -0.007577180981181791 
-0.007577180981181791 -0.007577180981181791 -0.007682419068805246 -0.007682419068805246 -0.007682419068805246 -0.01485247778163566 -0.01485247778163566 -0.01485247778163566 0.7021630506564033 
0.7021630506564033 0.7021630506564033 0.6830579262372162 0.6830579262372162 0.6830579262372162 0.6688747660143712 0.6688747660143712 0.6688747660143712 -0.06080338067785088 
-0.06080338067785088 -0.06080338067785088 -0.05814791884054586 -0.05814791884054586 -0.05814791884054586 -0.0535002077282824 -0.0535002077282824 -0.0535002077282824 0.5559848041580759 
0.5559848041580759 0.5559848041580759 0.5450868374027011 0.5450868374027011 0.5450868374027011 0.5647479353444542 0.5647479353444542 0.5647479353444542 -0.7872341771108597 
-0.7872341771108597 -0.7872341771108597 -0.7780599483714876 -0.7780599483714876 -0.7780599483714876 -0.7640334817554808 -0.7640334817554808 -0.7640334817554808 0.009813219590783732 
0.009813219590783732 0.009813219590783732 0.01236501217861789 0.01236501217861789 0.01236501217861789 0.01300375121921022 0.01300375121921022 0.01300375121921022 0.8133878198433808 
0.8133878198433808 0.8133878198433808 0.8006645391961451 0.8006645391961451 0.8006645391961451 0.7904941701312334 0.7904941701312334 0.7904941701312334 0.4949399528353924 
0.4949399528353924 0.4949399528353924 0.5084944877584527 0.5084944877584527 0.5084944877584527 -0.08658784780026975 -0.08658784780026975 -0.08658784780026975 -0.07040738057104449 
-0.07040738057104449 -0.07040738057104449 -0.06226851600380043 -0.06226851600380043 -0.06226851600380043 -0.012464521049867 -0.012464521049867 -0.012464521049867 -0.01013419174082254 
-0.01013419174082254 -0.01013419174082254 0.5449306460365297 0.5449306460365297 0.5449306460365297 0.5277681621897512 0.5277681621897512 0.5277681621897512 -0.4153977739010206 
-0.4153977739010206 -0.4153977739010206 -0.3858835778786259 -0.3858835778786259 -0.3858835778786259 0.7300297028339441 0.7300297028339441 0.7300297028339441 0.6927184855921049 
0.6927184855921049 0.6927184855921049 -0.1601224366402011 -0.1601224366402011 -0.1601224366402011 -0.1331692261522843 -0.1331692261522843 -0.1331692261522843 -0.4470708291927098 
-0.4470708291927098 -0.4470708291927098 -0.4209352182277811 -0.4209352182277811 -0.4209352182277811 -0.6419317880034124 -0.6419317880034124 -0.6419317880034124 -0.6556096471228205 
-0.6556096471228205 -0.6556096471228205 -0.3176808637331144 -0.3176808637331144 -0.3176808637331144 -0.3203519723270301 -0.3203519723270301 -0.3203519723270301 -0.5840544003175419 
-0.5840544003175419 -0.5840544003175419 -0.5928933718041181 -0.5928933718041181 -0.5928933718041181 0.7641657153706981 0.7641657153706981 0.7641657153706981 0.769527952586293 
0.769527952586293 0.769527952586293 -0.9026060021734343 -0.9026060021734343 -0.9026060021734343 -0.8829430831721743 -0.8829430831721743 -0.8829430831721743 0.1567438243508406 
0.1567438243508406 0.1567438243508406 0.1435253254859892 0.1435253254859892 0.1435253254859892 0.03188781979192366 0.03188781979192366 0.03188781979192366 0.0449505981096369 
0.0449505981096369 0.0449505981096369 -0.1448843645276219 -0.1448843645276219 -0.1448843645276219 -0.182560308526705 -0.182560308526705 -0.182560308526705 -0.1008318518808406 
-0.1008318518808406 -0.1008318518808406 -0.1097290759676354 -0.1097290759676354 -0.1097290759676354 0.1376408774940228 0.1376408774940228 0.1376408774940228 0.1535402138527616 
0.1535402138527616 0.1535402138527616 0.2311185117965302 0.2311185117965302 0.2311185117965302 0.19860974907542 0.19860974907542 0.19860974907542 -0.6491835281778705 
-0.6491835281778705 -0.6491835281778705 -0.6530658949658591 -0.6530658949658591 -0.6530658949658591 -0.6965829585065968 -0.6965829585065968 -0.6965829585065968 -0.7015578311093811 
-0.7015578311093811 -0.7015578311093811 -0.6193119198065449 -0.6193119198065449 -0.6193119198065449 -0.6272003892991551 -0.6272003892991551 -0.6272003892991551 0.105007549507646 
0.105007549507646 0.105007549507646 0.1132559612118361 0.1132559612118361 0.1132559612118361 -0.7626672286344722 -0.7626672286344722 -0.7626672286344722 -0.7703599914968946 
-0.7703599914968946 -0.7703599914968946 0.01545254634911388 0.01545254634911388 0.01545254634911388 0.005752261625178157 0.005752261625178157 0.005752261625178157 -0.7449439986296345 
-0.7449439986296345 -0.7449439986296345 -0.7395988589448629 -0.7395988589448629 -0.7395988589448629 0.2827398511483102 0.2827398511483102 0.2827398511483102 0.315650569284112 
0.315650569284112 0.315650569284112 -0.190275429862113 -0.190275429862113 -0.190275429862113 -0.2094335962669021 -0.2094335962669021 -0.2094335962669021 -0.8192074012365174 
-0.8192074012365174 -0.8192074012365174 -0.8326280947855715 -0.8326280947855715 -0.8326280947855715 0.5004181454449003 0.5004181454449003 0.5004181454449003 0.5170093001010377 
0.5170093001010377 0.5170093001010377 0.4112534949385645 0.4112534949385645 0.4112534949385645 0.409517934869199 0.409517934869199 0.409517934869199 -0.153819020360825 
-0.153819020360825 -0.153819020360825 -0.1773145935807072 -0.1773145935807072 -0.1773145935807072 0.7448665109719736 0.7448665109719736 0.7448665109719736 0.7362273147613672 
0.7362273147613672 0.7362273147613672 0.7461598350123461 0.7461598350123461 0.7461598350123461 0.7520242837746932 0.7520242837746932 0.7520242837746932 -0.2480561063558141 
-0.2480561063558141 -0.2480561063558141 -0.2645787961551098 -0.2645787961551098 -0.2645787961551098 -0.1646306900409005 -0.1646306900409005 -0.1646306900409005 -0.1715106311901298 
-0.1715106311901298 -0.1715106311901298 -0.1538879158827176 -0.1538879158827176 -0.1538879158827176 -0.09400433178250686 -0.09400433178250686 -0.09400433178250686 -0.07522230349474442 
-0.07522230349474442 -0.07522230349474442 0.06447269749011658 0.06447269749011658 0.06447269749011658 0.09073994842063622 0.09073994842063622 0.09073994842063622 0.05935656355056092 
0.05935656355056092 0.05935656355056092 0.05652682489762473 0.05652682489762473 0.05652682489762473 -0.9580274125865589 -0.9580274125865589 -0.9580274125865589 -0.9527783098205203 
-0.9527783098205203 -0.9527783098205203 0.2738050895886552 0.2738050895886552 0.2738050895886552 0.2676656585926129 0.2676656585926129 0.2676656585926129 0.4087345776717988 
0.4087345776717988 0.4087345776717988 0.4105604443690637 0.4105604443690637 0.4105604443690637 -0.144179933178645 -0.144179933178645 -0.144179933178645 -0.1278041067779572 
-0.1278041067779572 -0.1278041067779572 -0.1208891773595334 -0.1208891773595334 -0.1208891773595334 -0.1229567099287692 -0.1229567099287692 -0.1229567099287692 -0.7005431073245921 
-0.7005431073245921 -0.7005431073245921 -0.6907238549211813 -0.6907238549211813 -0.6907238549211813 -0.1710510237967899 -0.1710510237967899 -0.1710510237967899 -0.1851346448694063 
-0.1851346448694063 -0.1851346448694063 0.5793991412693844 0.5793991412693844 0.5793991412693844 -0.8387991806386885 -0.8387991806386885 -0.8387991806386885 -0.816812497917733 
-0.816812497917733 -0.816812497917733 -0.2107459190302761 -0.2107459190302761 -0.2107459190302761 -0.1791821010970401 -0.1791821010970401 -0.1791821010970401 -0.4816548491950305 
-0.4816548491950305 -0.4816548491950305 -0.4667591187599076 -0.4667591187599076 -0.4667591187599076 0.2943429649293953 0.2943429649293953 0.2943429649293953 0.3240896506971064 
0.3240896506971064 0.3240896506971064 0.05250847382157204 0.05250847382157204 0.05250847382157204 0.07163414122929726 0.07163414122929726 0.07163414122929726 -0.2010752801715822 
-0.2010752801715822 -0.2010752801715822 0.6470706089071476 0.6470706089071476 0.6470706089071476 0.6444447010608657 0.6444447010608657 0.6444447010608657 0.1272209703628761 
0.1272209703628761 0.1272209703628761 0.1341825076609262 0.1341825076609262 0.1341825076609262 -0.1173690679393517 -0.1173690679393517 -0.1173690679393517 -0.1307228825755649 
-0.1307228825755649 -0.1307228825755649 0.4586792019217616 0.4586792019217616 0.4586792019217616 0.4425493481953849 0.4425493481953849 0.4425493481953849 -0.5416524373231604 
-0.5416524373231604 -0.5416524373231604 -0.5330046272154837 -0.5330046272154837 -0.5330046272154837 -0.1949657777845399 -0.1949657777845399 -0.1949657777845399 -0.1929432924376047 
-0.1929432924376047 -0.1929432924376047 -0.537208349873881 -0.537208349873881 -0.537208349873881 -0.55457668553746 -0.55457668553746 -0.55457668553746 0.2919428997632453 
0.2919428997632453 0.2919428997632453 0.3037183085059453 0.3037183085059453 0.3037183085059453 -0.6240197338745989 -0.6240197338745989 -0.6240197338745989 -0.6402170009390222 
-0.6402170009390222 -0.6402170009390222 -0.00679896709505589 -0.00679896709505589 -0.00679896709505589 -0.02665468834203718 -0.02665468834203718 -0.02665468834203718 0.1880430424404653 
0.1880430424404653 0.1880430424404653 0.2013458497428328 0.2013458497428328 0.2013458497428328 0.057713413495544 0.057713413495544 0.057713413495544 0.06073144131420206 
0.06073144131420206 0.06073144131420206 -0.6088923235982732 -0.6088923235982732 -0.6088923235982732 -0.6235283171952222 -0.6235283171952222 -0.6235283171952222 0.5115214975595834 
0.5115214975595834 0.5115214975595834 0.4917725781660219 0.4917725781660219 0.4917725781660219 -0.3942410343459412 -0.3942410343459412 -0.3942410343459412 -0.8819744924738805 
-0.8819744924738805 -0.8819744924738805 0.85166779137608 0.85166779137608 0.85166779137608 0.2289119948534994 0.2289119948534994 0.2289119948534994 0.2101823132215414 
0.2101823132215414 0.2101823132215414 -0.7904392445842273 -0.7904392445842273 -0.7904392445842273 -0.8148738776118744 -0.8148738776118744 -0.8148738776118744 -0.1383367011015391 
-0.1383367011015391 -0.1383367011015391 -0.1558555607325494 -0.1558555607325494 -0.1558555607325494 0.8749644892855186 0.8749644892855186 0.8749644892855186 0.8886813500978317 
0.8886813500978317 0.8886813500978317 -0.5983603706382438 -0.5983603706382438 -0.5983603706382438 -0.643674492814288 -0.643674492814288 -0.643674492814288 0.1665077372435727 
0.1665077372435727 0.1665077372435727 0.1656739014501393 0.1656739014501393 0.1656739014501393 -0.2129327432252528 -0.2129327432252528 -0.2129327432252528 -0.2124436847196909 
-0.2124436847196909 -0.2124436847196909 0.04718325779464034 0.04718325779464034 0.04718325779464034 0.02362148858709157 0.02362148858709157 0.02362148858709157 0.156737803270405 
0.156737803270405 0.156737803270405 0.1819537391603621 0.1819537391603621 0.1819537391603621 0.3228613676877558 0.3228613676877558 0.3228613676877558 0.3117546912382463 
0.3117546912382463 0.3117546912382463 -0.02714909325062848 -0.02714909325062848 -0.02714909325062848 0.01301724316992069 0.01301724316992069 0.01301724316992069 -0.3924709938404919 
-0.3924709938404919 -0.3924709938404919 -0.4052206983145348 -0.4052206983145348 -0.4052206983145348 0.09857799024653914 0.09857799024653914 0.09857799024653914 0.1087917752735831 
0.1087917752735831 0.1087917752735831 0.9046713293378633 0.9046713293378633 0.9046713293378633 0.9171745122819879 0.9171745122819879 0.9171745122819879 -0.04497240717262708 
-0.04497240717262708 -0.04497240717262708 -0.04812912607030649 -0.04812912607030649 -0.04812912607030649 -0.1336000091620384 -0.1336000091620384 -0.1336000091620384 -0.1087890362233005 
-0.1087890362233005 -0.1087890362233005 -0.5545619604394125 -0.5545619604394125 -0.5545619604394125 0.2565445541890607 0.2565445541890607 0.2565445541890607 0.3052320071651848 
0.3052320071651848 0.3052320071651848 0.8817391448618001 0.8817391448618001 0.8817391448618001 0.8618098765084574 0.8618098765084574 0.8618098765084574 -0.07840900117253147 
-0.07840900117253147 -0.07840900117253147 -0.08738763813942874 -0.08738763813942874 -0.08738763813942874 0.68293246885432 0.68293246885432 0.68293246885432 0.7031939724351584 
0.7031939724351584 0.7031939724351584 0.1127155862313931 0.1127155862313931 0.1127155862313931 0.1507926080937936 0.1507926080937936 0.1507926080937936 -0.8275959330302294 
-0.8275959330302294 -0.8275959330302294 -0.842664461871425 -0.842664461871425 -0.842664461871425 -0.3308422300414387 -0.3308422300414387 -0.3308422300414387 -0.2815783954436433 
-0.2815783954436433 -0.2815783954436433 0.05283898967226756 0.05283898967226756 0.05283898967226756 0.09431474297535655 0.09431474297535655 0.09431474297535655 -0.03423935233919789 
-0.03423935233919789 -0.03423935233919789 -0.0282733620239109 -0.0282733620239109 -0.0282733620239109 0.8304960961821585 0.8304960961821585 0.8304960961821585 0.8555786365609843 
0.8555786365609843 0.8555786365609843 -0.1624477642710752 -0.1624477642710752 -0.1624477642710752 -0.2194893677997624 -0.2194893677997624 -0.2194893677997624 0.02116971152512283 
0.02116971152512283 0.02116971152512283 0.05763742864524835 0.05763742864524835 0.05763742864524835 0.846759194200808 0.846759194200808 0.846759194200808 0.820599831120815 
0.820599831120815 0.820599831120815 -0.08388748143666865 -0.08388748143666865 -0.08388748143666865 -0.08851904398951008 -0.08851904398951008 -0.08851904398951008 0.3157958389224356 
0.3157958389224356 0.3157958389224356 0.3148148075073893 0.3148148075073893 0.3148148075073893 0.6495399042445225 0.6495399042445225 0.6495399042445225 0.6694187189136862 
0.6694187189136862 0.6694187189136862 -0.03322629347688266 -0.03322629347688266 -0.03322629347688266 -0.02379778766951406 -0.02379778766951406 -0.02379778766951406 0.3932129795125802 
0.3932129795125802 0.3932129795125802 0.3576431396453962 0.3576431396453962 0.3576431396453962 0.200390061914488 0.200390061914488 0.200390061914488 0.2306047867274456 
0.2306047867274456 0.2306047867274456 0.03821097387333484 0.03821097387333484 0.03821097387333484 -0.0002541518992545519 -0.0002541518992545519 -0.0002541518992545519 0.3519515740781508 
0.3519515740781508 0.3519515740781508 0.3818928970053019 0.3818928970053019 0.3818928970053019 -0.1599814581186906 -0.1599814581186906 -0.1599814581186906 -0.1725776458646151 
-0.1725776458646151 -0.1725776458646151 0.6683798629448533 0.6683798629448533 0.6683798629448533 0.6512833496299577 0.6512833496299577 0.6512833496299577 -0.1367120189260804 
-0.1367120189260804 -0.1367120189260804 -0.1082572921193927 -0.1082572921193927 -0.1082572921193927 0.01028042221717642 0.01028042221717642 0.01028042221717642 0.006700092384959078 
0.006700092384959078 0.006700092384959078 -0.5397494004973706 -0.5397494004973706 -0.5397494004973706 -0.517120337393178 -0.517120337393178 -0.517120337393178 0.3193144281217743 
0.3193144281217743 0.3193144281217743 0.3477719478537956 0.3477719478537956 0.3477719478537956 -0.725377344154712 -0.725377344154712 -0.725377344154712 -0.751303539861779 
-0.751303539861779 -0.751303539861779 -0.03332857761821013 -0.03332857761821013 -0.03332857761821013 -0.01883431746617994 -0.01883431746617994 -0.01883431746617994 0.05048644824939097 
0.05048644824939097 0.05048644824939097 0.01592310577052804 0.01592310577052804 0.01592310577052804 0.07119568920757914 0.07119568920757914 0.07119568920757914 0.05837435021012111 
0.05837435021012111 0.05837435021012111 0.9230076702934734 0.9230076702934734 0.9230076702934734 0.9211376471409137 0.9211376471409137 0.9211376471409137 -0.09528405978336497 
-0.09528405978336497 -0.09528405978336497 -0.099453352799609 -0.099453352799609 -0.099453352799609 0.8708927021474008 0.8708927021474008 0.8708927021474008 0.8705560741273108 
0.8705560741273108 0.8705560741273108 -0.5882332777536183 -0.5882332777536183 -0.5882332777536183 -0.5563932497936355 -0.5563932497936355 -0.5563932497936355 0.8817308701080682 
0.8817308701080682 0.8817308701080682 0.8666721718988242 0.8666721718988242 0.8666721718988242 0.4121415668111049 0.4121415668111049 0.4121415668111049 0.4272636886506154 
0.4272636886506154 0.4272636886506154 0.3707710018864372 0.3707710018864372 0.3707710018864372 0.3387624102128264 0.3387624102128264 0.3387624102128264 -0.4642420864667836 
-0.4642420864667836 -0.4642420864667836 -0.4252628247855882 -0.4252628247855882 -0.4252628247855882 -0.3403046583039114 -0.3403046583039114 -0.3403046583039114 -0.3496845486646001 
-0.3496845486646001 -0.3496845486646001 -0.1481970911822704 -0.1481970911822704 -0.1481970911822704 -0.1646718088020259 -0.1646718088020259 -0.1646718088020259 -0.2149125243063548 
-0.2149125243063548 -0.2149125243063548 -0.1726137122254602 -0.1726137122254602 -0.1726137122254602 0.1361003484677529 0.1361003484677529 0.1361003484677529 0.1108691134511947 
0.1108691134511947 0.1108691134511947 0.2754226546902205 0.2754226546902205 0.2754226546902205 0.2849945020576933 0.2849945020576933 0.2849945020576933 0.2723812272518218 
0.2723812272518218 0.2723812272518218 0.2575764686195363 0.2575764686195363 0.2575764686195363 -0.8494596558496222 -0.8494596558496222 -0.8494596558496222 -0.8752543520102658 
-0.8752543520102658 -0.8752543520102658 -0.8745510751344213 -0.8745510751344213 -0.8745510751344213 -0.4985381250478202 -0.4985381250478202 -0.4985381250478202 -0.4788041689178156 
-0.4788041689178156 -0.4788041689178156 -0.4839603559350074 -0.4839603559350074 -0.4839603559350074 -0.1424941212806746 -0.1424941212806746 -0.1424941212806746 -0.1568165627840915 
-0.1568165627840915 -0.1568165627840915 -0.1495414932497457 -0.1495414932497457 -0.1495414932497457 -0.4731861523484664 -0.4731861523484664 -0.4731861523484664 -0.4533230708829973 
-0.4533230708829973 -0.4533230708829973 -0.4488029743261491 -0.4488029743261491 -0.4488029743261491 -0.8143588055034511 -0.8143588055034511 -0.8143588055034511 -0.809219182167908 
-0.809219182167908 -0.809219182167908 -0.783758581820476 -0.783758581820476 -0.783758581820476 -0.4183823027697516 -0.4183823027697516 -0.4183823027697516 -0.4483692629074142 
-0.4483692629074142 -0.4483692629074142 -0.4268812630820734 -0.4268812630820734 -0.4268812630820734 -0.3478959314565034 -0.3478959314565034 -0.3478959314565034 0.7270358908206003 
0.7270358908206003 0.7270358908206003 0.7371211195687262 0.7371211195687262 0.7371211195687262 0.7497659073912369 0.7497659073912369 0.7497659073912369 -0.4357876185763617 
-0.4357876185763617 -0.4357876185763617 -0.4146466797544063 -0.4146466797544063 -0.4146466797544063 -0.4506176120466852 -0.4506176120466852 -0.4506176120466852 0.8632467478885412 
0.8632467478885412 0.8632467478885412 0.8762390557499675 0.8762390557499675 0.8762390557499675 0.8645315202228812 0.8645315202228812 0.8645315202228812 -0.1302603660794738 
-0.1302603660794738 -0.1302603660794738 -0.1486410940947507 -0.1486410940947507 -0.1486410940947507 -0.115320104267532 -0.115320104267532 -0.115320104267532 -0.03850493926827799 
-0.03850493926827799 -0.03850493926827799 -0.0254990464699307 -0.0254990464699307 -0.0254990464699307 -0.03542485646738697 -0.03542485646738697 -0.03542485646738697 -0.02256304986519158 
-0.02256304986519158 -0.02256304986519158 -0.03031583227357031 -0.03031583227357031 -0.03031583227357031 -0.04268239481357448 -0.04268239481357448 -0.04268239481357448 0.2274217028959903 
0.2274217028959903 0.2274217028959903 0.2363320737771808 0.2363320737771808 0.2363320737771808 0.2515721764762568 0.2515721764762568 0.2515721764762568 -0.5837020941536175 
-0.5837020941536175 -0.5837020941536175 -0.5698175598064043 -0.5698175598064043 -0.5698175598064043 -0.5416098262703237 -0.5416098262703237 -0.5416098262703237 0.8223759175266465 
0.8223759175266465 0.8223759175266465 0.836486905704204 0.836486905704204 0.836486905704204 0.8491106135923611 0.8491106135923611 0.8491106135923611 -0.06366874267163858 
-0.06366874267163858 -0.06366874267163858 -0.09757133070143083 -0.09757133070143083 -0.09757133070143083 -0.1252066913950066 -0.1252066913950066 -0.1252066913950066 0.3392222454573733 
0.3392222454573733 0.3392222454573733 0.3328589043660436 0.3328589043660436 0.3328589043660436 0.3322982394167952 0.3322982394167952 0.3322982394167952 -0.929605963255967 
-0.929605963255967 -0.929605963255967 -0.9322134489916201 -0.9322134489916201 -0.9322134489916201 -0.9375204744988073 -0.9375204744988073 -0.9375204744988073 -0.001312322239842854 
-0.001312322239842854 -0.001312322239842854 -0.01039082397822161 -0.01039082397822161 -0.01039082397822161 -0.001341453736369782 -0.001341453736369782 -0.001341453736369782 -0.2964204364325933 
-0.2964204364325933 -0.2964204364325933 -0.2721886133541917 -0.2721886133541917 -0.2721886133541917 -0.2457206442763342 -0.2457206442763342 -0.2457206442763342 0.913921810920771 
0.913921810920771 0.913921810920771 0.9175498235048948 0.9175498235048948 0.9175498235048948 0.9225742890563333 0.9225742890563333 0.9225742890563333 -0.8413192994627533 
-0.8413192994627533 -0.8413192994627533 -0.8510730661818899 -0.8510730661818899 -0.8510730661818899 -0.8603062700422479 -0.8603062700422479 -0.8603062700422479 -0.3502150252450441 
-0.3502150252450441 -0.3502150252450441 -0.3348394319663516 -0.3348394319663516 -0.3348394319663516 -0.3086471968788538 -0.3086471968788538 -0.3086471968788538 0.0106585997428066 
0.0106585997428066 0.0106585997428066 0.01790599770860793 0.01790599770860793 0.01790599770860793 0.01708870790119902 0.01708870790119902 0.01708870790119902 -0.8012135580704818 
-0.8012135580704818 -0.8012135580704818 -0.8181431853867611 -0.8181431853867611 -0.8181431853867611 -0.8284823884576823 -0.8284823884576823 -0.8284823884576823 0.782180557667552 
0.782180557667552 0.782180557667552 0.7879352033158092 0.7879352033158092 0.7879352033158092 0.8004302735515618 0.8004302735515618 0.8004302735515618 -0.6494620454901257 