Title = Triangle100
FileType = Solution
Variables = q
Zone T = Triangle100
ZoneType = FETriangle
Nodes = 99072
Elements = 33024
DataPacking = Block
StrandID = 8
SolutionTime = 0.7000000000000001
0.6412538174159181 0.6412538174159181 0.6412538174159181 0.6473632548413626 0.6473632548413626 0.6473632548413626 0.6375768912575308 0.6375768912575308 0.6375768912575308 -0.1202508868356808 
-0.1202508868356808 -0.1202508868356808 -0.1410242136233879 -0.1410242136233879 -0.1410242136233879 -0.1199494369284895 -0.1199494369284895 -0.1199494369284895 -0.1302696455614965 
-0.1302696455614965 -0.1302696455614965 0.6941256341800718 0.6941256341800718 0.6941256341800718 0.7049171893446117 0.7049171893446117 0.7049171893446117 -0.06522299650003012 
-0.06522299650003012 -0.06522299650003012 -0.07877402470229228 -0.07877402470229228 -0.07877402470229228 -0.8596100880611456 -0.8596100880611456 -0.8596100880611456 -0.8447303270670919 
-0.8447303270670919 -0.8447303270670919 0.06288874184983897 0.06288874184983897 0.06288874184983897 0.06884045180888125 0.06884045180888125 0.06884045180888125 0.1201624356546781 
0.1201624356546781 0.1201624356546781 0.1320854851796752 0.1320854851796752 0.1320854851796752 -0.4184009509285201 -0.4184009509285201 -0.4184009509285201 -0.423498838722382 
-0.423498838722382 -0.423498838722382 -0.3093478374184187 -0.3093478374184187 -0.3093478374184187 -0.2637014742265951 -0.2637014742265951 -0.2637014742265951 -0.2809721557593544 
-0.2809721557593544 -0.2809721557593544 -0.3689983077800437 -0.3689983077800437 -0.3689983077800437 -0.3813841360710813 -0.3813841360710813 -0.3813841360710813 0.7221241955418348 
0.7221241955418348 0.7221241955418348 0.7427250758314777 0.7427250758314777 0.7427250758314777 0.7123003088899036 0.7123003088899036 0.7123003088899036 0.7386009954189321 
0.7386009954189321 0.7386009954189321 -0.868913634915924 -0.868913634915924 -0.868913634915924 -0.8651993977804686 -0.8651993977804686 -0.8651993977804686 0.1485089836679218 
0.1485089836679218 0.1485089836679218 0.1356469755218564 0.1356469755218564 0.1356469755218564 0.128104412896374 0.128104412896374 0.128104412896374 -0.2086166639232693 
-0.2086166639232693 -0.2086166639232693 -0.2287517639277903 -0.2287517639277903 -0.2287517639277903 -0.2426397134217045 -0.2426397134217045 -0.2426397134217045 0.08085447404500794 
0.08085447404500794 0.08085447404500794 0.06377484515945166 0.06377484515945166 0.06377484515945166 0.1206724819125975 0.1206724819125975 0.1206724819125975 -0.8443205461230545 
-0.8443205461230545 -0.8443205461230545 -0.8487099241998437 -0.8487099241998437 -0.8487099241998437 -0.8471175330528943 -0.8471175330528943 -0.8471175330528943 0.1826546791529072 
0.1826546791529072 0.1826546791529072 0.1785506739910726 0.1785506739910726 0.1785506739910726 0.1847278517022226 0.1847278517022226 0.1847278517022226 -0.1272888124987384 
-0.1272888124987384 -0.1272888124987384 -0.1416547450330481 -0.1416547450330481 -0.1416547450330481 -0.1498313328698807 -0.1498313328698807 -0.1498313328698807 -0.6176074323755549 
-0.6176074323755549 -0.6176074323755549 -0.6308896181595429 -0.6308896181595429 -0.6308896181595429 -0.6489189744734756 -0.6489189744734756 -0.6489189744734756 0.1619492390453113 
0.1619492390453113 0.1619492390453113 0.1308563605849701 0.1308563605849701 0.1308563605849701 0.6610766870387609 0.6610766870387609 0.6610766870387609 0.6568967583389032 
0.6568967583389032 0.6568967583389032 0.6123977329526543 0.6123977329526543 0.6123977329526543 0.6426959469587128 0.6426959469587128 0.6426959469587128 0.171798212724851 
0.171798212724851 0.171798212724851 0.1882174987556572 0.1882174987556572 0.1882174987556572 0.8825472312515089 0.8825472312515089 0.8825472312515089 0.8936873748616085 
0.8936873748616085 0.8936873748616085 -0.02729665936570827 -0.02729665936570827 -0.02729665936570827 -0.03661897283235745 -0.03661897283235745 -0.03661897283235745 -0.2670914816881933 
-0.2670914816881933 -0.2670914816881933 -0.2799708877704614 -0.2799708877704614 -0.2799708877704614 0.7672364215023533 0.7672364215023533 0.7672364215023533 0.7798076096292759 
0.7798076096292759 0.7798076096292759 -0.6525424666826012 -0.6525424666826012 -0.6525424666826012 -0.6447826945552924 -0.6447826945552924 -0.6447826945552924 0.2132709504171892 
0.2132709504171892 0.2132709504171892 0.1830137269814527 0.1830137269814527 0.1830137269814527 0.08064177171558758 0.08064177171558758 0.08064177171558758 0.08959676732895634 
0.08959676732895634 0.08959676732895634 -0.7480787740482492 -0.7480787740482492 -0.7480787740482492 -0.731620469391193 -0.731620469391193 -0.731620469391193 0.4610344619399683 
0.4610344619399683 0.4610344619399683 0.4769706270365779 0.4769706270365779 0.4769706270365779 0.1517987572153268 0.1517987572153268 0.1517987572153268 0.135854696695809 
0.135854696695809 0.135854696695809 0.5511324924045495 0.5511324924045495 0.5511324924045495 0.5378492779323957 0.5378492779323957 0.5378492779323957 -0.01622232214247567 
-0.01622232214247567 -0.01622232214247567 -0.004179771677318238 -0.004179771677318238 -0.004179771677318238 -0.2872049682335361 -0.2872049682335361 -0.2872049682335361 -0.2743253360013263 
-0.2743253360013263 -0.2743253360013263 0.7338699462067992 0.7338699462067992 0.7338699462067992 0.7575791764488105 0.7575791764488105 0.7575791764488105 -0.000636707532215806 
-0.000636707532215806 -0.000636707532215806 0.0004976384514481663 0.0004976384514481663 0.0004976384514481663 -0.1402312214824148 -0.1402312214824148 -0.1402312214824148 -0.1647915865943651 
-0.1647915865943651 -0.1647915865943651 -0.5173263850295238 -0.5173263850295238 -0.5173263850295238 -0.02015030507297649 -0.02015030507297649 -0.02015030507297649 -0.02885035771765837 
-0.02885035771765837 -0.02885035771765837 -0.4492938586459541 -0.4492938586459541 -0.4492938586459541 -0.4586982517918461 -0.4586982517918461 -0.4586982517918461 -0.08533510026961524 
-0.08533510026961524 -0.08533510026961524 -0.06355095841464603 -0.06355095841464603 -0.06355095841464603 0.1969502460814027 0.1969502460814027 0.1969502460814027 0.221089218546975 
0.221089218546975 0.221089218546975 0.1068882732060721 0.1068882732060721 0.1068882732060721 0.0883208818022731 0.0883208818022731 0.0883208818022731 0.1567001336417669 
0.1567001336417669 0.1567001336417669 0.1661349827687348 0.1661349827687348 0.1661349827687348 0.1283137450128335 0.1283137450128335 0.1283137450128335 0.1439776088697742 
0.1439776088697742 0.1439776088697742 0.6789263682711455 0.6789263682711455 0.6789263682711455 0.6695273256800409 0.6695273256800409 0.6695273256800409 0.3814620372871194 
0.3814620372871194 0.3814620372871194 0.3925476763616012 0.3925476763616012 0.3925476763616012 0.1475794295143548 0.1475794295143548 0.1475794295143548 0.1281622833329452 
0.1281622833329452 0.1281622833329452 -0.8874234096652471 -0.8874234096652471 -0.8874234096652471 -0.8898714868063566 -0.8898714868063566 -0.8898714868063566 0.5920565203217472 
0.5920565203217472 0.5920565203217472 0.5742162334655777 0.5742162334655777 0.5742162334655777 -0.1392047988508981 -0.1392047988508981 -0.1392047988508981 -0.1293748799555671 
-0.1293748799555671 -0.1293748799555671 0.7353584024201366 0.7353584024201366 0.7353584024201366 0.7458934753811925 0.7458934753811925 0.7458934753811925 0.6249734196029912 
0.6249734196029912 0.6249734196029912 0.6288643231332692 0.6288643231332692 0.6288643231332692 -0.6828992492423365 -0.6828992492423365 -0.6828992492423365 -0.6874159690897708 
-0.6874159690897708 -0.6874159690897708 0.5485087909036471 0.5485087909036471 0.5485087909036471 0.5416997301053714 0.5416997301053714 0.5416997301053714 0.5328667390105164 
0.5328667390105164 0.5328667390105164 0.3751567183565568 0.3751567183565568 0.3751567183565568 0.405225467132624 0.405225467132624 0.405225467132624 0.4061777309334927 
0.4061777309334927 0.4061777309334927 0.1297339288396421 0.1297339288396421 0.1297339288396421 0.110421861040582 0.110421861040582 0.110421861040582 0.09078244747771642 
0.09078244747771642 0.09078244747771642 0.6414730441779707 0.6414730441779707 0.6414730441779707 0.6285172370819909 0.6285172370819909 0.6285172370819909 0.615373794538094 
0.615373794538094 0.615373794538094 -0.3308129864806422 -0.3308129864806422 -0.3308129864806422 -0.319300696770369 -0.319300696770369 -0.319300696770369 -0.31914774484164 
-0.31914774484164 -0.31914774484164 -0.8405516790129269 -0.8405516790129269 -0.8405516790129269 -0.8261654347280999 -0.8261654347280999 -0.8261654347280999 0.6296074732342538 
0.6296074732342538 0.6296074732342538 0.6212971318536621 0.6212971318536621 0.6212971318536621 0.6341774841106123 0.6341774841106123 0.6341774841106123 0.08808513830448594 
0.08808513830448594 0.08808513830448594 0.09489942697701272 0.09489942697701272 0.09489942697701272 0.08875683160943246 0.08875683160943246 0.08875683160943246 -0.3225437985648242 
-0.3225437985648242 -0.3225437985648242 -0.3398406730858499 -0.3398406730858499 -0.3398406730858499 -0.3529881067690064 -0.3529881067690064 -0.3529881067690064 -0.0416386741348329 
-0.0416386741348329 -0.0416386741348329 -0.02136517463504557 -0.02136517463504557 -0.02136517463504557 -0.03478169821626846 -0.03478169821626846 -0.03478169821626846 0.174942548045567 
0.174942548045567 0.174942548045567 0.1696379831305947 0.1696379831305947 0.1696379831305947 0.1673390535864639 0.1673390535864639 0.1673390535864639 0.4526302205592054 
0.4526302205592054 0.4526302205592054 0.4622498193880627 0.4622498193880627 0.4622498193880627 0.4489727883912775 0.4489727883912775 0.4489727883912775 0.04703525998715928 
0.04703525998715928 0.04703525998715928 0.05241034778783027 0.05241034778783027 0.05241034778783027 0.06005758939915754 0.06005758939915754 0.06005758939915754 0.5259469894215099 
0.5259469894215099 0.5259469894215099 0.5175646375241651 0.5175646375241651 0.5175646375241651 0.6821237241190095 0.6821237241190095 0.6821237241190095 0.6736607042276305 
0.6736607042276305 0.6736607042276305 0.6622368285412938 0.6622368285412938 0.6622368285412938 -0.6844688572285631 -0.6844688572285631 -0.6844688572285631 -0.7049453727530381 
-0.7049453727530381 -0.7049453727530381 0.4445201134613886 0.4445201134613886 0.4445201134613886 0.463085364339537 0.463085364339537 0.463085364339537 -0.1006624354103572 
-0.1006624354103572 -0.1006624354103572 -0.1110491134336055 -0.1110491134336055 -0.1110491134336055 0.1237534907155514 0.1237534907155514 0.1237534907155514 0.1417346491194076 
0.1417346491194076 0.1417346491194076 -0.3268591726270149 -0.3268591726270149 -0.3268591726270149 -0.3441767568685333 -0.3441767568685333 -0.3441767568685333 -0.0483953558703502 
-0.0483953558703502 -0.0483953558703502 -0.05498870483854104 -0.05498870483854104 -0.05498870483854104 0.3399985054615516 0.3399985054615516 0.3399985054615516 0.3492375414114781 
0.3492375414114781 0.3492375414114781 -0.04558837955299748 -0.04558837955299748 -0.04558837955299748 -0.05600784636419881 -0.05600784636419881 -0.05600784636419881 0.821172667539215 
0.821172667539215 0.821172667539215 0.8145095498809072 0.8145095498809072 0.8145095498809072 -0.1551727702531143 -0.1551727702531143 -0.1551727702531143 -0.1838371769233418 
-0.1838371769233418 -0.1838371769233418 0.22878360835834 0.22878360835834 0.22878360835834 0.2329987104441476 0.2329987104441476 0.2329987104441476 0.7684500494893023 
0.7684500494893023 0.7684500494893023 0.77469715618918 0.77469715618918 0.77469715618918 -0.584882485742937 -0.584882485742937 -0.584882485742937 -0.6018518303142892 
-0.6018518303142892 -0.6018518303142892 0.6213896674220201 0.6213896674220201 0.6213896674220201 0.6391618081774553 0.6391618081774553 0.6391618081774553 0.2142872196568146 
0.2142872196568146 0.2142872196568146 0.2055152747654659 0.2055152747654659 0.2055152747654659 0.09012712363585147 0.09012712363585147 0.09012712363585147 0.08463789449049683 
0.08463789449049683 0.08463789449049683 0.08018552295255689 0.08018552295255689 0.08018552295255689 0.0787766132239687 0.0787766132239687 0.0787766132239687 -0.02071554724711285 
-0.02071554724711285 -0.02071554724711285 -0.02496882787511493 -0.02496882787511493 -0.02496882787511493 -0.2184509551884977 -0.2184509551884977 -0.2184509551884977 -0.1943025233787405 
-0.1943025233787405 -0.1943025233787405 0.396646221578854 0.396646221578854 0.396646221578854 0.4355521188871314 0.4355521188871314 0.4355521188871314 0.7461362756036409 
0.7461362756036409 0.7461362756036409 0.7479980172061094 0.7479980172061094 0.7479980172061094 0.3724686628124271 0.3724686628124271 0.3724686628124271 0.398680670868197 
0.398680670868197 0.398680670868197 0.3071074108260145 0.3071074108260145 0.3071074108260145 0.3030942854105236 0.3030942854105236 0.3030942854105236 0.6356675436590873 
0.6356675436590873 0.6356675436590873 0.6305921969520853 0.6305921969520853 0.6305921969520853 0.1054872976909163 0.1054872976909163 0.1054872976909163 0.106071830338573 
0.106071830338573 0.106071830338573 0.387150448509186 0.387150448509186 0.387150448509186 0.3654699316562545 0.3654699316562545 0.3654699316562545 0.6149448760539381 
0.6149448760539381 0.6149448760539381 0.5949425759363156 0.5949425759363156 0.5949425759363156 0.02112804711323765 0.02112804711323765 0.02112804711323765 0.00758596617824134 
0.00758596617824134 0.00758596617824134 -0.4868788937413736 -0.4868788937413736 -0.4868788937413736 -0.5049581066703147 -0.5049581066703147 -0.5049581066703147 0.1357028872912226 
0.1357028872912226 0.1357028872912226 0.1364586670653977 0.1364586670653977 0.1364586670653977 -0.3130018486955465 -0.3130018486955465 -0.3130018486955465 -0.3433311578071939 
-0.3433311578071939 -0.3433311578071939 0.1240048574247633 0.1240048574247633 0.1240048574247633 0.1402610484168816 0.1402610484168816 0.1402610484168816 -0.0451457965406025 
-0.0451457965406025 -0.0451457965406025 -0.0413413019895298 -0.0413413019895298 -0.0413413019895298 0.1475858352060216 0.1475858352060216 0.1475858352060216 0.1395844984384791 
0.1395844984384791 0.1395844984384791 0.12895784870768 0.12895784870768 0.12895784870768 -0.3446297340892033 -0.3446297340892033 -0.3446297340892033 -0.3602849014080849 
-0.3602849014080849 -0.3602849014080849 -0.2702128637720226 -0.2702128637720226 -0.2702128637720226 -0.2290261500540764 -0.2290261500540764 -0.2290261500540764 -0.2552766262870156 
-0.2552766262870156 -0.2552766262870156 -0.2665987050617646 -0.2665987050617646 -0.2665987050617646 0.3030831092533821 0.3030831092533821 0.3030831092533821 0.3281033012747687 
0.3281033012747687 0.3281033012747687 -0.8935735161932268 -0.8935735161932268 -0.8935735161932268 -0.899568818876269 -0.899568818876269 -0.899568818876269 -0.8583952936413032 
-0.8583952936413032 -0.8583952936413032 -0.8654410153964128 -0.8654410153964128 -0.8654410153964128 0.9110710313622845 0.9110710313622845 0.9110710313622845 0.9062505672341554 
0.9062505672341554 0.9062505672341554 -0.5787001188159681 -0.5787001188159681 -0.5787001188159681 -0.6034103949157865 -0.6034103949157865 -0.6034103949157865 -0.0170295882205096 
-0.0170295882205096 -0.0170295882205096 -0.01616932875710917 -0.01616932875710917 -0.01616932875710917 -0.5710706316338187 -0.5710706316338187 -0.5710706316338187 -0.5615832106560711 
-0.5615832106560711 -0.5615832106560711 -0.8244596481313242 -0.8244596481313242 -0.8244596481313242 -0.1665084275636449 -0.1665084275636449 -0.1665084275636449 -0.2012442950535007 
-0.2012442950535007 -0.2012442950535007 -0.6004058142627169 -0.6004058142627169 -0.6004058142627169 -0.6080693800054171 -0.6080693800054171 -0.6080693800054171 0.1371758700606274 
0.1371758700606274 0.1371758700606274 0.1204850677201223 0.1204850677201223 0.1204850677201223 0.6913038572993206 0.6913038572993206 0.6913038572993206 0.671281840953321 
0.671281840953321 0.671281840953321 0.7797514570503098 0.7797514570503098 0.7797514570503098 0.7674404523023891 0.7674404523023891 0.7674404523023891 -0.6326499376120154 
-0.6326499376120154 -0.6326499376120154 0.3257771963832032 0.3257771963832032 0.3257771963832032 0.3089787623000376 0.3089787623000376 0.3089787623000376 -0.6963450549711194 
-0.6963450549711194 -0.6963450549711194 -0.7116473243189934 -0.7116473243189934 -0.7116473243189934 -0.4917316337822631 -0.4917316337822631 -0.4917316337822631 -0.4905566190015486 
-0.4905566190015486 -0.4905566190015486 0.1122229608246456 0.1122229608246456 0.1122229608246456 0.09632427005195848 0.09632427005195848 0.09632427005195848 0.3548661706735454 
0.3548661706735454 0.3548661706735454 0.3938442620812275 0.3938442620812275 0.3938442620812275 -0.1061135750229151 -0.1061135750229151 -0.1061135750229151 -0.1218213951089047 
-0.1218213951089047 -0.1218213951089047 0.06018645522076232 0.06018645522076232 0.06018645522076232 0.07471904919481237 0.07471904919481237 0.07471904919481237 0.01325751681153556 
0.01325751681153556 0.01325751681153556 -0.003277818980563691 -0.003277818980563691 -0.003277818980563691 -0.1655064729395381 -0.1655064729395381 -0.1655064729395381 -0.1813176582883223 
-0.1813176582883223 -0.1813176582883223 -0.3808208934616217 -0.3808208934616217 -0.3808208934616217 -0.3623788476925484 -0.3623788476925484 -0.3623788476925484 0.2816697707847552 
0.2816697707847552 0.2816697707847552 0.2645820484909047 0.2645820484909047 0.2645820484909047 -0.8411285601472118 -0.8411285601472118 -0.8411285601472118 -0.8353972270633645 
-0.8353972270633645 -0.8353972270633645 0.05446546593528734 0.05446546593528734 0.05446546593528734 0.06375442706627703 0.06375442706627703 0.06375442706627703 0.009234188460972785 
0.009234188460972785 0.009234188460972785 0.02917110408466499 0.02917110408466499 0.02917110408466499 0.8242162118466585 0.8242162118466585 0.8242162118466585 0.5031046520483465 
0.5031046520483465 0.5031046520483465 -0.07886276015062309 -0.07886276015062309 -0.07886276015062309 -0.01196335546645878 -0.01196335546645878 -0.01196335546645878 0.00100291056739299 
0.00100291056739299 0.00100291056739299 -0.09911437213191382 -0.09911437213191382 -0.09911437213191382 -0.06380674136614936 -0.06380674136614936 -0.06380674136614936 0.1676998154149617 
0.1676998154149617 0.1676998154149617 0.1390858875612915 0.1390858875612915 0.1390858875612915 -0.4625881122177574 -0.4625881122177574 -0.4625881122177574 -0.4613218836538149 
-0.4613218836538149 -0.4613218836538149 -0.02283139055603119 -0.02283139055603119 -0.02283139055603119 -0.01429200249914888 -0.01429200249914888 -0.01429200249914888 -0.8996119338695976 
-0.8996119338695976 -0.8996119338695976 -0.9091126028859333 -0.9091126028859333 -0.9091126028859333 -0.6185956373618988 -0.6185956373618988 -0.6185956373618988 -0.6457485545905393 
-0.6457485545905393 -0.6457485545905393 0.777014992398434 0.777014992398434 0.777014992398434 0.8012288017877258 0.8012288017877258 0.8012288017877258 0.07329430232257031 
0.07329430232257031 0.07329430232257031 0.05655059292699583 0.05655059292699583 0.05655059292699583 0.07944063644221702 0.07944063644221702 0.07944063644221702 0.06469898202316651 
0.06469898202316651 0.06469898202316651 0.8847339051674503 0.8847339051674503 0.8847339051674503 0.8695786088371429 0.8695786088371429 0.8695786088371429 -0.09566374851766044 
-0.09566374851766044 -0.09566374851766044 -0.09037850487947692 -0.09037850487947692 -0.09037850487947692 0.332718595259173 0.332718595259173 0.332718595259173 0.2904744913551155 
0.2904744913551155 0.2904744913551155 -0.1140834882242425 -0.1140834882242425 -0.1140834882242425 -0.114672563945149 -0.114672563945149 -0.114672563945149 0.7473176024493601 
0.7473176024493601 0.7473176024493601 0.7306627155510759 0.7306627155510759 0.7306627155510759 0.5921664297616447 0.5921664297616447 0.5921664297616447 0.5609026127812433 
0.5609026127812433 0.5609026127812433 0.1300929575760276 0.1300929575760276 0.1300929575760276 -0.7547725702274903 -0.7547725702274903 -0.7547725702274903 -0.7569421132630693 
-0.7569421132630693 -0.7569421132630693 -0.4969592429789874 -0.4969592429789874 -0.4969592429789874 -0.520484377598128 -0.520484377598128 -0.520484377598128 -0.5469741081179387 
-0.5469741081179387 -0.5469741081179387 -0.5712013979251749 -0.5712013979251749 -0.5712013979251749 0.3503985811791587 0.3503985811791587 0.3503985811791587 0.3379721457063044 
0.3379721457063044 0.3379721457063044 -0.9011368014004498 -0.9011368014004498 -0.9011368014004498 -0.9054288225436099 -0.9054288225436099 -0.9054288225436099 -0.04904493526586687 
-0.04904493526586687 -0.04904493526586687 0.002556544512251553 0.002556544512251553 0.002556544512251553 0.6949877354690088 0.6949877354690088 0.6949877354690088 0.6938644288307156 
0.6938644288307156 0.6938644288307156 -0.5626767019384413 -0.5626767019384413 -0.5626767019384413 -0.5418799015578057 -0.5418799015578057 -0.5418799015578057 -0.3572515306092052 
-0.3572515306092052 -0.3572515306092052 -0.3983015901654086 -0.3983015901654086 -0.3983015901654086 -0.100182481200953 -0.100182481200953 -0.100182481200953 -0.1160278859543047 
-0.1160278859543047 -0.1160278859543047 0.821546872247447 0.821546872247447 0.821546872247447 0.8176970985733024 0.8176970985733024 0.8176970985733024 -0.3115156273123477 
-0.3115156273123477 -0.3115156273123477 -0.34337827816321 -0.34337827816321 -0.34337827816321 0.04576863128187396 0.04576863128187396 0.04576863128187396 0.09667944910243226 
0.09667944910243226 0.09667944910243226 0.0003569039804530259 0.0003569039804530259 0.0003569039804530259 -0.03724485651908863 -0.03724485651908863 -0.03724485651908863 -0.7940789849036191 
-0.7940789849036191 -0.7940789849036191 -0.7679901021423516 -0.7679901021423516 -0.7679901021423516 0.04058950294465293 0.04058950294465293 0.04058950294465293 0.03331821016888979 
0.03331821016888979 0.03331821016888979 -0.2750826778832232 -0.2750826778832232 -0.2750826778832232 -0.2561251299893103 -0.2561251299893103 -0.2561251299893103 -0.7806608602711205 
-0.7806608602711205 -0.7806608602711205 -0.7892145288911692 -0.7892145288911692 -0.7892145288911692 0.1181988238859345 0.1181988238859345 0.1181988238859345 0.09810215530698337 
0.09810215530698337 0.09810215530698337 0.8109969061164535 0.8109969061164535 0.8109969061164535 0.8266050016855935 0.8266050016855935 0.8266050016855935 0.3570827522393621 
0.3570827522393621 0.3570827522393621 0.3251097443663443 0.3251097443663443 0.3251097443663443 0.0302417295261293 0.0302417295261293 0.0302417295261293 -0.008769775464898173 
-0.008769775464898173 -0.008769775464898173 0.2577997937118206 0.2577997937118206 0.2577997937118206 0.2464312257568601 0.2464312257568601 0.2464312257568601 0.5330563401059252 
0.5330563401059252 0.5330563401059252 0.4955809201088713 0.4955809201088713 0.4955809201088713 0.5446619979446703 0.5446619979446703 0.5446619979446703 0.578711024520954 
0.578711024520954 0.578711024520954 0.2063971550743123 0.2063971550743123 0.2063971550743123 0.1638617950697223 0.1638617950697223 0.1638617950697223 0.6329455715496729 
0.6329455715496729 0.6329455715496729 0.6186957509773789 0.6186957509773789 0.6186957509773789 0.6949450228512166 0.6949450228512166 0.6949450228512166 0.6722881261880703 
0.6722881261880703 0.6722881261880703 0.5987269124842185 0.5987269124842185 0.5987269124842185 0.5719879354159904 0.5719879354159904 0.5719879354159904 -0.1076113036683524 
-0.1076113036683524 -0.1076113036683524 -0.1233398179232897 -0.1233398179232897 -0.1233398179232897 -0.6322119380065473 -0.6322119380065473 -0.6322119380065473 -0.6305117360575978 
-0.6305117360575978 -0.6305117360575978 -0.03551609701010004 -0.03551609701010004 -0.03551609701010004 -0.01476406250601955 -0.01476406250601955 -0.01476406250601955 0.7548132221867507 
0.7548132221867507 0.7548132221867507 0.7269334528099469 0.7269334528099469 0.7269334528099469 -0.0845199839834174 -0.0845199839834174 -0.0845199839834174 -0.06058537894230793 
-0.06058537894230793 -0.06058537894230793 0.455457683822689 0.455457683822689 0.455457683822689 0.4696634644240139 0.4696634644240139 0.4696634644240139 -0.05273405144447157 
-0.05273405144447157 -0.05273405144447157 0.007422142984997764 0.007422142984997764 0.007422142984997764 -0.07135155398725188 -0.07135155398725188 -0.07135155398725188 -0.06255740475859078 
-0.06255740475859078 -0.06255740475859078 0.6345477532203286 0.6345477532203286 0.6345477532203286 0.64399947433911 0.64399947433911 0.64399947433911 0.06095315246157013 
0.06095315246157013 0.06095315246157013 0.03079061643098845 0.03079061643098845 0.03079061643098845 -0.116076872345645 -0.116076872345645 -0.116076872345645 -0.09394566273329222 
-0.09394566273329222 -0.09394566273329222 -0.2853957121765879 -0.2853957121765879 -0.2853957121765879 -0.2856684837389658 -0.2856684837389658 -0.2856684837389658 -0.2421296862060286 
-0.2421296862060286 -0.2421296862060286 -0.2602944056463096 -0.2602944056463096 -0.2602944056463096 -0.8860553198713866 -0.8860553198713866 -0.8860553198713866 -0.8920299813131773 
-0.8920299813131773 -0.8920299813131773 0.03794113445786038 0.03794113445786038 0.03794113445786038 0.05417440307573752 0.05417440307573752 0.05417440307573752 0.07579872716183492 
0.07579872716183492 0.07579872716183492 0.09674993194313115 0.09674993194313115 0.09674993194313115 0.573106421384548 0.573106421384548 0.573106421384548 0.5290194766050736 
0.5290194766050736 0.5290194766050736 0.5275428387043379 0.5275428387043379 0.5275428387043379 -0.01489540805369036 -0.01489540805369036 -0.01489540805369036 -0.03156185404610323 
-0.03156185404610323 -0.03156185404610323 -0.03754781329848739 -0.03754781329848739 -0.03754781329848739 -0.5032771640569589 -0.5032771640569589 -0.5032771640569589 -0.508129581393675 
-0.508129581393675 -0.508129581393675 -0.5417453481845964 -0.5417453481845964 -0.5417453481845964 -0.4996839010153808 -0.4996839010153808 -0.4996839010153808 -0.5248636731224243 
-0.5248636731224243 -0.5248636731224243 -0.5440508081792652 -0.5440508081792652 -0.5440508081792652 0.5742478404291617 0.5742478404291617 0.5742478404291617 0.570395917113798 
0.570395917113798 0.570395917113798 0.5939762925286287 0.5939762925286287 0.5939762925286287 0.4813007685277483 0.4813007685277483 0.4813007685277483 0.503504572728614 
0.503504572728614 0.503504572728614 0.5371685754235715 0.5371685754235715 0.5371685754235715 -0.06899025311660956 -0.06899025311660956 -0.06899025311660956 -0.1358870126596892 
-0.1358870126596892 -0.1358870126596892 -0.1268896260986554 -0.1268896260986554 -0.1268896260986554 -0.1343127507786891 -0.1343127507786891 -0.1343127507786891 -0.05858543993916163 
-0.05858543993916163 -0.05858543993916163 -0.06735764431278526 -0.06735764431278526 -0.06735764431278526 -0.06585883856381237 -0.06585883856381237 -0.06585883856381237 -0.1407434369400836 
-0.1407434369400836 -0.1407434369400836 -0.133722797624568 -0.133722797624568 -0.133722797624568 -0.1177885912653771 -0.1177885912653771 -0.1177885912653771 0.5074417229496054 
0.5074417229496054 0.5074417229496054 0.539084460562679 0.539084460562679 0.539084460562679 0.528142899231875 0.528142899231875 0.528142899231875 -0.8602040988567833 
-0.8602040988567833 -0.8602040988567833 -0.8664734210521188 -0.8664734210521188 -0.8664734210521188 -0.8630608119617331 -0.8630608119617331 -0.8630608119617331 -0.4321400690835118 
-0.4321400690835118 -0.4321400690835118 -0.3732086761649201 -0.3732086761649201 -0.3732086761649201 -0.3932775933774015 -0.3932775933774015 -0.3932775933774015 -0.7738520584710951 
-0.7738520584710951 -0.7738520584710951 -0.7877363480691322 -0.7877363480691322 -0.7877363480691322 -0.7958395702294958 -0.7958395702294958 -0.7958395702294958 0.402168493191035 
0.402168493191035 0.402168493191035 0.3873119596204798 0.3873119596204798 0.3873119596204798 0.4135746478591274 0.4135746478591274 0.4135746478591274 -0.1473464584173455 
-0.1473464584173455 -0.1473464584173455 -0.1492234200819053 -0.1492234200819053 -0.1492234200819053 -0.1540141875798255 -0.1540141875798255 -0.1540141875798255 0.5269460060449359 
0.5269460060449359 0.5269460060449359 0.5430873867417478 0.5430873867417478 0.5430873867417478 0.5507920484704122 0.5507920484704122 0.5507920484704122 0.1541152710266295 
0.1541152710266295 0.1541152710266295 0.1371436139949369 0.1371436139949369 0.1371436139949369 0.1234012291087623 0.1234012291087623 0.1234012291087623 0.2350443591036077 
0.2350443591036077 0.2350443591036077 0.2117276866356937 0.2117276866356937 0.2117276866356937 0.2119277372196935 0.2119277372196935 0.2119277372196935 -0.5586844250824381 
-0.5586844250824381 -0.5586844250824381 -0.5435222179717885 -0.5435222179717885 -0.5435222179717885 -0.5249967533245686 -0.5249967533245686 -0.5249967533245686 0.03758641430469186 
0.03758641430469186 0.03758641430469186 0.05643176448729088 0.05643176448729088 0.05643176448729088 0.07605669914289533 0.07605669914289533 0.07605669914289533 -0.3084168619773782 
-0.3084168619773782 -0.3084168619773782 -0.3232393017661512 -0.3232393017661512 -0.3232393017661512 -0.3286581705832783 -0.3286581705832783 -0.3286581705832783 0.3624222466047694 
0.3624222466047694 0.3624222466047694 0.366571625321318 0.366571625321318 0.366571625321318 0.3772333385190879 0.3772333385190879 0.3772333385190879 -0.1497180091553394 
-0.1497180091553394 -0.1497180091553394 -0.1601110921973065 -0.1601110921973065 -0.1601110921973065 -0.1784719608871717 -0.1784719608871717 -0.1784719608871717 -0.3698742310402358 
-0.3698742310402358 -0.3698742310402358 -0.331821432329258 -0.331821432329258 -0.331821432329258 -0.3223418054552314 -0.3223418054552314 -0.3223418054552314 0.1343038196520006 
0.1343038196520006 0.1343038196520006 0.1249161623106699 0.1249161623106699 0.1249161623106699 0.1327011971466837 0.1327011971466837 0.1327011971466837 -0.2866905871394925 
-0.2866905871394925 -0.2866905871394925 -0.2606833399681192 -0.2606833399681192 -0.2606833399681192 -0.2693707276103144 -0.2693707276103144 -0.2693707276103144 0.1649557419502402 
0.1649557419502402 0.1649557419502402 0.2115557683222813 0.2115557683222813 0.2115557683222813 0.222165059994499 0.222165059994499 0.222165059994499 0.1586537651201389 