Title = Triangle100
FileType = Solution
Variables = q
Zone T = Triangle100
ZoneType = FETriangle
Nodes = 99072
Elements = 33024
DataPacking = Block
StrandID = 18
SolutionTime = 1.7
-0.5634013509478073 -0.5634013509478073 -0.5634013509478073 -0.5698016523516335 -0.5698016523516335 -0.5698016523516335 -0.5612411668177268 -0.5612411668177268 -0.5612411668177268 0.0775257949441132 
0.0775257949441132 0.0775257949441132 0.09692165391802889 0.09692165391802889 0.09692165391802889 0.1377767510769228 0.1377767510769228 0.1377767510769228 0.1465597321174152 
0.1465597321174152 0.1465597321174152 -0.6246189911104196 -0.6246189911104196 -0.6246189911104196 -0.6338409314501879 -0.6338409314501879 -0.6338409314501879 0.07958942857895415 
0.07958942857895415 0.07958942857895415 0.0913405978789525 0.0913405978789525 0.0913405978789525 0.7608245727695995 0.7608245727695995 0.7608245727695995 0.7470363367342344 
0.7470363367342344 0.7470363367342344 -0.08729606686370453 -0.08729606686370453 -0.08729606686370453 -0.09221698337098419 -0.09221698337098419 -0.09221698337098419 -0.07750843039011972 
-0.07750843039011972 -0.07750843039011972 -0.0887426911532293 -0.0887426911532293 -0.0887426911532293 0.3547305759622031 0.3547305759622031 0.3547305759622031 0.3594854464289273 
0.3594854464289273 0.3594854464289273 0.2977096091218819 0.2977096091218819 0.2977096091218819 0.2589694947187134 0.2589694947187134 0.2589694947187134 0.2743183687391467 
0.2743183687391467 0.2743183687391467 0.3429781920910828 0.3429781920910828 0.3429781920910828 0.3529327122133196 0.3529327122133196 0.3529327122133196 -0.6489049847781386 
-0.6489049847781386 -0.6489049847781386 -0.6663558991034545 -0.6663558991034545 -0.6663558991034545 -0.6392016330282573 -0.6392016330282573 -0.6392016330282573 -0.6613496160666914 
-0.6613496160666914 -0.6613496160666914 0.7709551883414612 0.7709551883414612 0.7709551883414612 0.767037535146912 0.767037535146912 0.767037535146912 -0.1399369475654086 
-0.1399369475654086 -0.1399369475654086 -0.1293973552545247 -0.1293973552545247 -0.1293973552545247 -0.1232606186639708 -0.1232606186639708 -0.1232606186639708 0.200425368425703 
0.200425368425703 0.200425368425703 0.2175438862811957 0.2175438862811957 0.2175438862811957 0.229552261104272 0.229552261104272 0.229552261104272 -0.07638214968048082 
-0.07638214968048082 -0.07638214968048082 -0.06155271801138768 -0.06155271801138768 -0.06155271801138768 -0.11130788402576 -0.11130788402576 -0.11130788402576 0.7470195807740017 
0.7470195807740017 0.7470195807740017 0.7508844873797671 0.7508844873797671 0.7508844873797671 0.7493132635788953 0.7493132635788953 0.7493132635788953 -0.1351357495520198 
-0.1351357495520198 -0.1351357495520198 -0.1313536210716715 -0.1313536210716715 -0.1313536210716715 -0.1371836521354564 -0.1371836521354564 -0.1371836521354564 0.134352056984512 
0.134352056984512 0.134352056984512 0.146527809410451 0.146527809410451 0.146527809410451 0.15322835682608 0.15322835682608 0.15322835682608 0.5592829514936349 
0.5592829514936349 0.5592829514936349 0.5705950697267139 0.5705950697267139 0.5705950697267139 0.5860088227623361 0.5860088227623361 0.5860088227623361 -0.1195172045911266 
-0.1195172045911266 -0.1195172045911266 -0.0913240643748881 -0.0913240643748881 -0.0913240643748881 -0.5892412332811429 -0.5892412332811429 -0.5892412332811429 -0.5862701337658746 
-0.5862701337658746 -0.5862701337658746 -0.5441402425650973 -0.5441402425650973 -0.5441402425650973 -0.5720528755941652 -0.5720528755941652 -0.5720528755941652 -0.1656413235853822 
-0.1656413235853822 -0.1656413235853822 -0.1791523746708569 -0.1791523746708569 -0.1791523746708569 -0.7837903974863148 -0.7837903974863148 -0.7837903974863148 -0.7936992851274329 
-0.7936992851274329 -0.7936992851274329 0.05746990951331366 0.05746990951331366 0.05746990951331366 0.06556989472264445 0.06556989472264445 0.06556989472264445 0.2208477168427906 
0.2208477168427906 0.2208477168427906 0.2319732758216971 0.2319732758216971 0.2319732758216971 -0.6800160142626406 -0.6800160142626406 -0.6800160142626406 -0.6917092459267065 
-0.6917092459267065 -0.6917092459267065 0.5707529718864967 0.5707529718864967 0.5707529718864967 0.5639088799850549 0.5639088799850549 0.5639088799850549 -0.1748118744109541 
-0.1748118744109541 -0.1748118744109541 -0.1473944050654834 -0.1473944050654834 -0.1473944050654834 -0.08178943472190922 -0.08178943472190922 -0.08178943472190922 -0.08906890122325335 
-0.08906890122325335 -0.08906890122325335 0.6586210890714363 0.6586210890714363 0.6586210890714363 0.644120558830807 0.644120558830807 0.644120558830807 -0.4281220533692655 
-0.4281220533692655 -0.4281220533692655 -0.4416960846936177 -0.4416960846936177 -0.4416960846936177 -0.1532717856958102 -0.1532717856958102 -0.1532717856958102 -0.1394633657148404 
-0.1394633657148404 -0.1394633657148404 -0.5047643356633311 -0.5047643356633311 -0.5047643356633311 -0.4935130943711375 -0.4935130943711375 -0.4935130943711375 -0.0105671124805621 
-0.0105671124805621 -0.0105671124805621 -0.02106969109789661 -0.02106969109789661 -0.02106969109789661 0.2787728648333294 0.2787728648333294 0.2787728648333294 0.2679232521427173 
0.2679232521427173 0.2679232521427173 -0.658478272404558 -0.658478272404558 -0.658478272404558 -0.6787827387367038 -0.6787827387367038 -0.6787827387367038 0.03486119831962664 
0.03486119831962664 0.03486119831962664 0.0337319344876908 0.0337319344876908 0.0337319344876908 0.09638348739302167 0.09638348739302167 0.09638348739302167 0.119276363773239 
0.119276363773239 0.119276363773239 0.4659368726939418 0.4659368726939418 0.4659368726939418 0.04242875268013016 0.04242875268013016 0.04242875268013016 0.04858483568035925 
0.04858483568035925 0.04858483568035925 0.3832246527633528 0.3832246527633528 0.3832246527633528 0.39201026346223 0.39201026346223 0.39201026346223 0.04494298786645462 
0.04494298786645462 0.04494298786645462 0.02475166177096281 0.02475166177096281 0.02475166177096281 -0.1512667023731235 -0.1512667023731235 -0.1512667023731235 -0.1746869724168411 
-0.1746869724168411 -0.1746869724168411 -0.1244455024367653 -0.1244455024367653 -0.1244455024367653 -0.1086873414755296 -0.1086873414755296 -0.1086873414755296 -0.1437747010822968 
-0.1437747010822968 -0.1437747010822968 -0.1503194530850857 -0.1503194530850857 -0.1503194530850857 -0.08849226994296616 -0.08849226994296616 -0.08849226994296616 -0.1037906856756455 
-0.1037906856756455 -0.1037906856756455 -0.5958764152820408 -0.5958764152820408 -0.5958764152820408 -0.5882648388368074 -0.5882648388368074 -0.5882648388368074 -0.3291586218769692 
-0.3291586218769692 -0.3291586218769692 -0.3400469157469566 -0.3400469157469566 -0.3400469157469566 -0.1036415713886333 -0.1036415713886333 -0.1036415713886333 -0.08612873446392219 
-0.08612873446392219 -0.08612873446392219 0.7880127733031208 0.7880127733031208 0.7880127733031208 0.7907873681893947 0.7907873681893947 0.7907873681893947 -0.5385930839043613 
-0.5385930839043613 -0.5385930839043613 -0.5229410963562285 -0.5229410963562285 -0.5229410963562285 0.1260520418439568 0.1260520418439568 0.1260520418439568 0.1191202039676911 
0.1191202039676911 0.1191202039676911 -0.6599228862625333 -0.6599228862625333 -0.6599228862625333 -0.668702721771414 -0.668702721771414 -0.668702721771414 -0.5662087798451996 
-0.5662087798451996 -0.5662087798451996 -0.5686409580466187 -0.5686409580466187 -0.5686409580466187 0.6149488939036616 0.6149488939036616 0.6149488939036616 0.618853227478219 
0.618853227478219 0.618853227478219 -0.4858486784249721 -0.4858486784249721 -0.4858486784249721 -0.4803420659865335 -0.4803420659865335 -0.4803420659865335 -0.4731721585058676 
-0.4731721585058676 -0.4731721585058676 -0.3515068831732005 -0.3515068831732005 -0.3515068831732005 -0.3775185242120613 -0.3775185242120613 -0.3775185242120613 -0.3789923865401064 
-0.3789923865401064 -0.3789923865401064 -0.1254492171418756 -0.1254492171418756 -0.1254492171418756 -0.1084536757557024 -0.1084536757557024 -0.1084536757557024 -0.0914055868812553 
-0.0914055868812553 -0.0914055868812553 -0.5735136376669816 -0.5735136376669816 -0.5735136376669816 -0.5623047086482806 -0.5623047086482806 -0.5623047086482806 -0.5511286912987801 
-0.5511286912987801 -0.5511286912987801 0.2747830788584765 0.2747830788584765 0.2747830788584765 0.2639292941951181 0.2639292941951181 0.2639292941951181 0.2634837242794121 
0.2634837242794121 0.2634837242794121 0.7439793949433621 0.7439793949433621 0.7439793949433621 0.7307237159513018 0.7307237159513018 0.7307237159513018 -0.5556478747880402 
-0.5556478747880402 -0.5556478747880402 -0.5486270225531633 -0.5486270225531633 -0.5486270225531633 -0.5608764405843936 -0.5608764405843936 -0.5608764405843936 -0.1099421757062824 
-0.1099421757062824 -0.1099421757062824 -0.1159935812081554 -0.1159935812081554 -0.1159935812081554 -0.1108957970586583 -0.1108957970586583 -0.1108957970586583 0.2828590834006094 
0.2828590834006094 0.2828590834006094 0.2984661709317613 0.2984661709317613 0.2984661709317613 0.309892494500011 0.309892494500011 0.309892494500011 0.0140847300201733 
0.0140847300201733 0.0140847300201733 -0.004739817714908777 -0.004739817714908777 -0.004739817714908777 0.006724436607215737 0.006724436607215737 0.006724436607215737 -0.1287360004780374 
-0.1287360004780374 -0.1287360004780374 -0.1239814152461628 -0.1239814152461628 -0.1239814152461628 -0.1221813170019269 -0.1221813170019269 -0.1221813170019269 -0.3933639367609066 
-0.3933639367609066 -0.3933639367609066 -0.4029415521766596 -0.4029415521766596 -0.4029415521766596 -0.3913381456324463 -0.3913381456324463 -0.3913381456324463 -0.04726647015650032 
-0.04726647015650032 -0.04726647015650032 -0.05112542311736957 -0.05112542311736957 -0.05112542311736957 -0.05732492090336745 -0.05732492090336745 -0.05732492090336745 -0.4675549493229474 
-0.4675549493229474 -0.4675549493229474 -0.4607392567898256 -0.4607392567898256 -0.4607392567898256 -0.6093934366477934 -0.6093934366477934 -0.6093934366477934 -0.602293543795126 
-0.602293543795126 -0.602293543795126 -0.5924374880573035 -0.5924374880573035 -0.5924374880573035 0.6003964603713606 0.6003964603713606 0.6003964603713606 0.6190236834446555 
0.6190236834446555 0.6190236834446555 -0.3956193452838417 -0.3956193452838417 -0.3956193452838417 -0.4118599076379953 -0.4118599076379953 -0.4118599076379953 0.1200806020949957 
0.1200806020949957 0.1200806020949957 0.1295319986038125 0.1295319986038125 0.1295319986038125 -0.1397348520408255 -0.1397348520408255 -0.1397348520408255 -0.1556880307766105 
-0.1556880307766105 -0.1556880307766105 0.3057180184256087 0.3057180184256087 0.3057180184256087 0.3199580733121175 0.3199580733121175 0.3199580733121175 0.07795284184492922 
0.07795284184492922 0.07795284184492922 0.08362257116339897 0.08362257116339897 0.08362257116339897 -0.3090350412421911 -0.3090350412421911 -0.3090350412421911 -0.316589057215261 
-0.316589057215261 -0.316589057215261 0.06674311708833665 0.06674311708833665 0.06674311708833665 0.07576051618328086 0.07576051618328086 0.07576051618328086 -0.7268518835287123 
-0.7268518835287123 -0.7268518835287123 -0.7204802593315001 -0.7204802593315001 -0.7204802593315001 0.1112586206590206 0.1112586206590206 0.1112586206590206 0.1381278282798559 
0.1381278282798559 0.1381278282798559 -0.1782870565255767 -0.1782870565255767 -0.1782870565255767 -0.1819343925747399 -0.1819343925747399 -0.1819343925747399 -0.6795868357538444 
-0.6795868357538444 -0.6795868357538444 -0.6850141420396586 -0.6850141420396586 -0.6850141420396586 0.5273987710848795 0.5273987710848795 0.5273987710848795 0.5422731879974788 
0.5422731879974788 0.5422731879974788 -0.5629934415338846 -0.5629934415338846 -0.5629934415338846 -0.5785374764843217 -0.5785374764843217 -0.5785374764843217 -0.1666277068095187 
-0.1666277068095187 -0.1666277068095187 -0.1588474168943589 -0.1588474168943589 -0.1588474168943589 -0.110725112444584 -0.110725112444584 -0.110725112444584 -0.1061300097231565 
-0.1061300097231565 -0.1061300097231565 -0.1033731291743777 -0.1033731291743777 -0.1033731291743777 -0.1016533815096929 -0.1016533815096929 -0.1016533815096929 0.05319375784858649 
0.05319375784858649 0.05319375784858649 0.05686250285238349 0.05686250285238349 0.05686250285238349 0.1965481340591475 0.1965481340591475 0.1965481340591475 0.1746915903275208 
0.1746915903275208 0.1746915903275208 -0.3379095385645168 -0.3379095385645168 -0.3379095385645168 -0.3731904038690006 -0.3731904038690006 -0.3731904038690006 -0.6574508602004648 
-0.6574508602004648 -0.6574508602004648 -0.6593010184399646 -0.6593010184399646 -0.6593010184399646 -0.3315610196855066 -0.3315610196855066 -0.3315610196855066 -0.3543023985329294 
-0.3543023985329294 -0.3543023985329294 -0.2511163691435854 -0.2511163691435854 -0.2511163691435854 -0.2474177219476043 -0.2474177219476043 -0.2474177219476043 -0.5631589178561551 
-0.5631589178561551 -0.5631589178561551 -0.5591408799518978 -0.5591408799518978 -0.5591408799518978 -0.125267248732106 -0.125267248732106 -0.125267248732106 -0.1258265058406819 
-0.1258265058406819 -0.1258265058406819 -0.3451984121814851 -0.3451984121814851 -0.3451984121814851 -0.3251781956273032 -0.3251781956273032 -0.3251781956273032 -0.5374473400873739 
-0.5374473400873739 -0.5374473400873739 -0.5184340412417835 -0.5184340412417835 -0.5184340412417835 -0.04325656703152015 -0.04325656703152015 -0.04325656703152015 -0.0314892855296373 
-0.0314892855296373 -0.0314892855296373 0.4464398146912459 0.4464398146912459 0.4464398146912459 0.4621270960323356 0.4621270960323356 0.4621270960323356 -0.1224573836659822 
-0.1224573836659822 -0.1224573836659822 -0.1220097982835617 -0.1220097982835617 -0.1220097982835617 0.2790629204411362 0.2790629204411362 0.2790629204411362 0.3065682327958085 
0.3065682327958085 0.3065682327958085 -0.11262064285116 -0.11262064285116 -0.11262064285116 -0.128062074390027 -0.128062074390027 -0.128062074390027 0.07372521229820764 
0.07372521229820764 0.07372521229820764 0.07056551015859344 0.07056551015859344 0.07056551015859344 -0.1054327333520914 -0.1054327333520914 -0.1054327333520914 -0.09836070856764959 
-0.09836070856764959 -0.09836070856764959 -0.1180397376975186 -0.1180397376975186 -0.1180397376975186 0.3280477225688503 0.3280477225688503 0.3280477225688503 0.3414391424039102 
0.3414391424039102 0.3414391424039102 0.2202261911207907 0.2202261911207907 0.2202261911207907 0.1825597369998419 0.1825597369998419 0.1825597369998419 0.2088878273639675 
0.2088878273639675 0.2088878273639675 0.2188191984421444 0.2188191984421444 0.2188191984421444 -0.2507509311217624 -0.2507509311217624 -0.2507509311217624 -0.2730841577139891 
-0.2730841577139891 -0.2730841577139891 0.7953450147567503 0.7953450147567503 0.7953450147567503 0.800429421995658 0.800429421995658 0.800429421995658 0.7642793498404694 
0.7642793498404694 0.7642793498404694 0.7701814879819702 0.7701814879819702 0.7701814879819702 -0.808333359037132 -0.808333359037132 -0.808333359037132 -0.8039132826717985 
-0.8039132826717985 -0.8039132826717985 0.5009134107620997 0.5009134107620997 0.5009134107620997 0.5236690552651362 0.5236690552651362 0.5236690552651362 0.04867983934963108 
0.04867983934963108 0.04867983934963108 0.04805096625590641 0.04805096625590641 0.04805096625590641 0.4945020793220132 0.4945020793220132 0.4945020793220132 0.4860726295794302 
0.4860726295794302 0.4860726295794302 0.7294448234927065 0.7294448234927065 0.7294448234927065 0.1656955260634868 0.1656955260634868 0.1656955260634868 0.1957617557089578 
0.1957617557089578 0.1957617557089578 0.5444197904244377 0.5444197904244377 0.5444197904244377 0.5507700666679759 0.5507700666679759 0.5507700666679759 -0.1062250334970566 
-0.1062250334970566 -0.1062250334970566 -0.09164977543842873 -0.09164977543842873 -0.09164977543842873 -0.6215496917410923 -0.6215496917410923 -0.6215496917410923 -0.6042516702077925 
-0.6042516702077925 -0.6042516702077925 -0.6872581527376325 -0.6872581527376325 -0.6872581527376325 -0.6757177162071223 -0.6757177162071223 -0.6757177162071223 0.572051155572654 
0.572051155572654 0.572051155572654 -0.2917105079017621 -0.2917105079017621 -0.2917105079017621 -0.2758934002834583 -0.2758934002834583 -0.2758934002834583 0.6245233302189499 
0.6245233302189499 0.6245233302189499 0.637566500721189 0.637566500721189 0.637566500721189 0.421084232774729 0.421084232774729 0.421084232774729 0.4201454833524375 
0.4201454833524375 0.4201454833524375 -0.1285095832507234 -0.1285095832507234 -0.1285095832507234 -0.1145553544250541 -0.1145553544250541 -0.1145553544250541 -0.3265068641391403 
-0.3265068641391403 -0.3265068641391403 -0.3612305917669314 -0.3612305917669314 -0.3612305917669314 0.1137257889710866 0.1137257889710866 0.1137257889710866 0.1273398585223003 
0.1273398585223003 0.1273398585223003 -0.03168736609386436 -0.03168736609386436 -0.03168736609386436 -0.04433408574929027 -0.04433408574929027 -0.04433408574929027 -0.01966445117286187 
-0.01966445117286187 -0.01966445117286187 -0.005277105969268833 -0.005277105969268833 -0.005277105969268833 0.1761923801893601 0.1761923801893601 0.1761923801893601 0.1894922800968422 
0.1894922800968422 0.1894922800968422 0.3598875581894244 0.3598875581894244 0.3598875581894244 0.3442443814816004 0.3442443814816004 0.3442443814816004 -0.2624538817427589 
-0.2624538817427589 -0.2624538817427589 -0.2476493672631594 -0.2476493672631594 -0.2476493672631594 0.7445733730210722 0.7445733730210722 0.7445733730210722 0.7395008788984867 
0.7395008788984867 0.7395008788984867 -0.02192193738240913 -0.02192193738240913 -0.02192193738240913 -0.02997699584876198 -0.02997699584876198 -0.02997699584876198 -0.03175600213211435 
-0.03175600213211435 -0.03175600213211435 -0.04959926088306825 -0.04959926088306825 -0.04959926088306825 -0.729445925569 -0.729445925569 -0.729445925569 -0.4367224042464615 
-0.4367224042464615 -0.4367224042464615 0.03978485787536265 0.03978485787536265 0.03978485787536265 -0.0210318421322156 -0.0210318421322156 -0.0210318421322156 -0.03248348662354879 
-0.03248348662354879 -0.03248348662354879 0.09396563183749526 0.09396563183749526 0.09396563183749526 0.06355957335169088 0.06355957335169088 0.06355957335169088 -0.125798397312725 
-0.125798397312725 -0.125798397312725 -0.100332641740368 -0.100332641740368 -0.100332641740368 0.3958922010190237 0.3958922010190237 0.3958922010190237 0.3951588814575418 
0.3951588814575418 0.3951588814575418 0.05550104726442213 0.05550104726442213 0.05550104726442213 0.04754082706908136 0.04754082706908136 0.04754082706908136 0.7997348845724691 
0.7997348845724691 0.7997348845724691 0.8079604737566843 0.8079604737566843 0.8079604737566843 0.5392237387456286 0.5392237387456286 0.5392237387456286 0.5643472937999008 
0.5643472937999008 0.5643472937999008 -0.6953739113373532 -0.6953739113373532 -0.6953739113373532 -0.7160421100731342 -0.7160421100731342 -0.7160421100731342 -0.08291047396821463 
-0.08291047396821463 -0.08291047396821463 -0.0694638612113963 -0.0694638612113963 -0.0694638612113963 -0.1036403587748075 -0.1036403587748075 -0.1036403587748075 -0.09068093968847565 
-0.09068093968847565 -0.09068093968847565 -0.7862214957512945 -0.7862214957512945 -0.7862214957512945 -0.7722685663800288 -0.7722685663800288 -0.7722685663800288 0.1060169952157253 
0.1060169952157253 0.1060169952157253 0.1022320579332555 0.1022320579332555 0.1022320579332555 -0.2978621515950394 -0.2978621515950394 -0.2978621515950394 -0.2599619428765934 
-0.2599619428765934 -0.2599619428765934 0.09013018393087487 0.09013018393087487 0.09013018393087487 0.08931621845843797 0.08931621845843797 0.08931621845843797 -0.661877732889725 
-0.661877732889725 -0.661877732889725 -0.647722479978548 -0.647722479978548 -0.647722479978548 -0.5384080199333574 -0.5384080199333574 -0.5384080199333574 -0.5118281249231271 
-0.5118281249231271 -0.5118281249231271 -0.1261668289845355 -0.1261668289845355 -0.1261668289845355 0.6705630776772941 0.6705630776772941 0.6705630776772941 0.6713019176482471 
0.6713019176482471 0.6713019176482471 0.4284343680234098 0.4284343680234098 0.4284343680234098 0.4495688394707081 0.4495688394707081 0.4495688394707081 0.4718706883496586 
0.4718706883496586 0.4718706883496586 0.4940673803452474 0.4940673803452474 0.4940673803452474 -0.3279973037750014 -0.3279973037750014 -0.3279973037750014 -0.3161903755024327 
-0.3161903755024327 -0.3161903755024327 0.8002669198564729 0.8002669198564729 0.8002669198564729 0.8044769932532836 0.8044769932532836 0.8044769932532836 0.05114227545556606 
0.05114227545556606 0.05114227545556606 0.005086145811661225 0.005086145811661225 0.005086145811661225 -0.6263307165480064 -0.6263307165480064 -0.6263307165480064 -0.6254713392389236 
-0.6254713392389236 -0.6254713392389236 0.5060640971633663 0.5060640971633663 0.5060640971633663 0.4863507996225352 0.4863507996225352 0.4863507996225352 0.310820626883668 
0.310820626883668 0.310820626883668 0.3473650060381558 0.3473650060381558 0.3473650060381558 0.0588180015624236 0.0588180015624236 0.0588180015624236 0.07372334429650265 
0.07372334429650265 0.07372334429650265 -0.7314187716456356 -0.7314187716456356 -0.7314187716456356 -0.7271776385219708 -0.7271776385219708 -0.7271776385219708 0.3005334117964996 
0.3005334117964996 0.3005334117964996 0.3276096627118582 0.3276096627118582 0.3276096627118582 -0.04944132401938506 -0.04944132401938506 -0.04944132401938506 -0.09370228746720095 
-0.09370228746720095 -0.09370228746720095 0.01465118616462352 0.01465118616462352 0.01465118616462352 0.04802911971774049 0.04802911971774049 0.04802911971774049 0.7041915281771951 
0.7041915281771951 0.7041915281771951 0.6809313387517129 0.6809313387517129 0.6809313387517129 -0.06974750582623711 -0.06974750582623711 -0.06974750582623711 -0.06339960290851798 
-0.06339960290851798 -0.06339960290851798 0.2371768457369045 0.2371768457369045 0.2371768457369045 0.2193452744779801 0.2193452744779801 0.2193452744779801 0.6898421600098652 
0.6898421600098652 0.6898421600098652 0.6983712809773888 0.6983712809773888 0.6983712809773888 -0.135688639602787 -0.135688639602787 -0.135688639602787 -0.1185778324103209 
-0.1185778324103209 -0.1185778324103209 -0.7245093633714308 -0.7245093633714308 -0.7245093633714308 -0.7377214490044401 -0.7377214490044401 -0.7377214490044401 -0.3048636005901791 
-0.3048636005901791 -0.3048636005901791 -0.2767609557257849 -0.2767609557257849 -0.2767609557257849 -0.006635684927895251 -0.006635684927895251 -0.006635684927895251 0.02806645649183651 
0.02806645649183651 0.02806645649183651 -0.2527489311120267 -0.2527489311120267 -0.2527489311120267 -0.2435268227572459 -0.2435268227572459 -0.2435268227572459 -0.4891783190337399 
-0.4891783190337399 -0.4891783190337399 -0.4574318139773819 -0.4574318139773819 -0.4574318139773819 -0.4784206163417566 -0.4784206163417566 -0.4784206163417566 -0.5088826708532046 
-0.5088826708532046 -0.5088826708532046 -0.1670358179386345 -0.1670358179386345 -0.1670358179386345 -0.1289787334769202 -0.1289787334769202 -0.1289787334769202 -0.5568202659626604 
-0.5568202659626604 -0.5568202659626604 -0.5449599865992929 -0.5449599865992929 -0.5449599865992929 -0.614422915863286 -0.614422915863286 -0.614422915863286 -0.5933125180479568 
-0.5933125180479568 -0.5933125180479568 -0.5367068017922678 -0.5367068017922678 -0.5367068017922678 -0.5139404393239433 -0.5139404393239433 -0.5139404393239433 0.1230889200971876 
0.1230889200971876 0.1230889200971876 0.1374281298538747 0.1374281298538747 0.1374281298538747 0.5691362767265811 0.5691362767265811 0.5691362767265811 0.5664861515624833 
0.5664861515624833 0.5664861515624833 0.006689817311798546 0.006689817311798546 0.006689817311798546 -0.01069154081858745 -0.01069154081858745 -0.01069154081858745 -0.6739697996550703 
-0.6739697996550703 -0.6739697996550703 -0.6494233102279579 -0.6494233102279579 -0.6494233102279579 0.04582484052503803 0.04582484052503803 0.04582484052503803 0.02451481750419503 
0.02451481750419503 0.02451481750419503 -0.3926229056094411 -0.3926229056094411 -0.3926229056094411 -0.4065750588690252 -0.4065750588690252 -0.4065750588690252 0.03794919224972448 
0.03794919224972448 0.03794919224972448 -0.01587996925903477 -0.01587996925903477 -0.01587996925903477 0.0500348663203038 0.0500348663203038 0.0500348663203038 0.04080945972326056 
0.04080945972326056 0.04080945972326056 -0.5728164953847077 -0.5728164953847077 -0.5728164953847077 -0.5815385888419826 -0.5815385888419826 -0.5815385888419826 -0.03705646662407322 
-0.03705646662407322 -0.03705646662407322 -0.01160472852572056 -0.01160472852572056 -0.01160472852572056 0.1280607316739645 0.1280607316739645 0.1280607316739645 0.1093442178610213 
0.1093442178610213 0.1093442178610213 0.2782164067261476 0.2782164067261476 0.2782164067261476 0.2777187882651815 0.2777187882651815 0.2777187882651815 0.2336063732720672 
0.2336063732720672 0.2336063732720672 0.2479155448437795 0.2479155448437795 0.2479155448437795 0.7884618757333892 0.7884618757333892 0.7884618757333892 0.7936749240373844 
0.7936749240373844 0.7936749240373844 -0.04119756425076417 -0.04119756425076417 -0.04119756425076417 -0.0570452064845396 -0.0570452064845396 -0.0570452064845396 -0.07610494725716586 
-0.07610494725716586 -0.07610494725716586 -0.09431871824897489 -0.09431871824897489 -0.09431871824897489 -0.4990958866908223 -0.4990958866908223 -0.4990958866908223 -0.4590456322621903 
-0.4590456322621903 -0.4590456322621903 -0.4581017510750206 -0.4581017510750206 -0.4581017510750206 0.03722943822162473 0.03722943822162473 0.03722943822162473 0.0517532791390667 
0.0517532791390667 0.0517532791390667 0.05808411022927878 0.05808411022927878 0.05808411022927878 0.4322914010040112 0.4322914010040112 0.4322914010040112 0.4369930275725191 
0.4369930275725191 0.4369930275725191 0.4677495305688917 0.4677495305688917 0.4677495305688917 0.4417754198146098 0.4417754198146098 0.4417754198146098 0.4639339982959539 
0.4639339982959539 0.4639339982959539 0.4815952550357123 0.4815952550357123 0.4815952550357123 -0.4973504920984235 -0.4973504920984235 -0.4973504920984235 -0.493678228165737 
-0.493678228165737 -0.493678228165737 -0.5154895111764449 -0.5154895111764449 -0.5154895111764449 -0.4416492024833546 -0.4416492024833546 -0.4416492024833546 -0.4601896360987948 
-0.4601896360987948 -0.4601896360987948 -0.4899637377133875 -0.4899637377133875 -0.4899637377133875 0.08792050344961533 0.08792050344961533 0.08792050344961533 0.09331268285563422 
0.09331268285563422 0.09331268285563422 0.0846568854372956 0.0846568854372956 0.0846568854372956 0.0912345807457849 0.0912345807457849 0.0912345807457849 0.08663424150539453 
0.08663424150539453 0.08663424150539453 0.09412954098158133 0.09412954098158133 0.09412954098158133 0.09246629887914315 0.09246629887914315 0.09246629887914315 0.09661613033113632 
0.09661613033113632 0.09661613033113632 0.09038924584924898 0.09038924584924898 0.09038924584924898 0.07551853347006073 0.07551853347006073 0.07551853347006073 -0.467099660548785 
-0.467099660548785 -0.467099660548785 -0.4939202499297192 -0.4939202499297192 -0.4939202499297192 -0.4844083186910457 -0.4844083186910457 -0.4844083186910457 0.7631249888991724 
0.7631249888991724 0.7631249888991724 0.7690497522139396 0.7690497522139396 0.7690497522139396 0.7662633548062388 0.7662633548062388 0.7662633548062388 0.3772502847782243 
0.3772502847782243 0.3772502847782243 0.3247149513903168 0.3247149513903168 0.3247149513903168 0.345432911647985 0.345432911647985 0.345432911647985 0.6882207924884589 
0.6882207924884589 0.6882207924884589 0.7003409253788619 0.7003409253788619 0.7003409253788619 0.7072023976572157 0.7072023976572157 0.7072023976572157 -0.3442355644551542 
-0.3442355644551542 -0.3442355644551542 -0.3312099856559638 -0.3312099856559638 -0.3312099856559638 -0.3561579175984038 -0.3561579175984038 -0.3561579175984038 0.1026923693402079 
0.1026923693402079 0.1026923693402079 0.1043563517273071 0.1043563517273071 0.1043563517273071 0.1088210736347046 0.1088210736347046 0.1088210736347046 -0.4824377465539822 
-0.4824377465539822 -0.4824377465539822 -0.4967958302178599 -0.4967958302178599 -0.4967958302178599 -0.5038144227846689 -0.5038144227846689 -0.5038144227846689 -0.1604745585765303 
-0.1604745585765303 -0.1604745585765303 -0.1455902913561098 -0.1455902913561098 -0.1455902913561098 -0.1337105688760099 -0.1337105688760099 -0.1337105688760099 -0.1849456186750784 
-0.1849456186750784 -0.1849456186750784 -0.1635842544868648 -0.1635842544868648 -0.1635842544868648 -0.1640956812678262 -0.1640956812678262 -0.1640956812678262 0.5041253683443384 
0.5041253683443384 0.5041253683443384 0.4910631775210975 0.4910631775210975 0.4910631775210975 0.4744834781133783 0.4744834781133783 0.4744834781133783 -0.004204443563408485 
-0.004204443563408485 -0.004204443563408485 -0.02121221049609862 -0.02121221049609862 -0.02121221049609862 -0.03927221348658741 -0.03927221348658741 -0.03927221348658741 0.2625654452485703 
0.2625654452485703 0.2625654452485703 0.2752819056128957 0.2752819056128957 0.2752819056128957 0.2795063081163692 0.2795063081163692 0.2795063081163692 -0.3187397926538126 
-0.3187397926538126 -0.3187397926538126 -0.3217047032394728 -0.3217047032394728 -0.3217047032394728 -0.3304028981682901 -0.3304028981682901 -0.3304028981682901 0.1612274976549416 
0.1612274976549416 0.1612274976549416 0.1701802395058667 0.1701802395058667 0.1701802395058667 0.1859288480409721 0.1859288480409721 0.1859288480409721 0.3142069549020955 
0.3142069549020955 0.3142069549020955 0.2801719613100138 0.2801719613100138 0.2801719613100138 0.2720847321038299 0.2720847321038299 0.2720847321038299 -0.1171656384536511 
-0.1171656384536511 -0.1171656384536511 -0.1075806430126156 -0.1075806430126156 -0.1075806430126156 -0.1138481194613878 -0.1138481194613878 -0.1138481194613878 0.2314402751041986 
0.2314402751041986 0.2314402751041986 0.2072428164861013 0.2072428164861013 0.2072428164861013 0.2149948794751493 0.2149948794751493 0.2149948794751493 -0.152966156083519 