Title = Triangle100
FileType = Solution
Variables = q
Zone T = Triangle100
ZoneType = FETriangle
Nodes = 99072
Elements = 33024
DataPacking = Block
StrandID = 20
SolutionTime = 1.9
0.2963519360445093 0.2963519360445093 0.2963519360445093 0.2902842553311401 0.2902842553311401 0.2902842553311401 0.300528261645936 0.300528261645936 0.300528261645936 -0.133869245705509 
-0.133869245705509 -0.133869245705509 -0.1020740743288039 -0.1020740743288039 -0.1020740743288039 0.2074973794066935 0.2074973794066935 0.2074973794066935 0.2040971188603028 
0.2040971188603028 0.2040971188603028 -0.6271244407432339 -0.6271244407432339 -0.6271244407432339 -0.6177612822035055 -0.6177612822035055 -0.6177612822035055 0.772185254769471 
0.772185254769471 0.772185254769471 0.7757944365357932 0.7757944365357932 0.7757944365357932 0.3203111585660513 0.3203111585660513 0.3203111585660513 0.3136300327685329 
0.3136300327685329 0.3136300327685329 -0.5263173642366403 -0.5263173642366403 -0.5263173642366403 -0.5305272766587985 -0.5305272766587985 -0.5305272766587985 0.2157990728821541 
0.2157990728821541 0.2157990728821541 0.2083420846422086 0.2083420846422086 0.2083420846422086 0.1243761605548754 0.1243761605548754 0.1243761605548754 0.1167822614597345 
0.1167822614597345 0.1167822614597345 0.1083127174348433 0.1083127174348433 0.1083127174348433 0.1339482640187404 0.1339482640187404 0.1339482640187404 0.1120470339325105 
0.1120470339325105 0.1120470339325105 0.7845682050296474 0.7845682050296474 0.7845682050296474 0.7805585164216838 0.7805585164216838 0.7805585164216838 -0.5680055393344541 
-0.5680055393344541 -0.5680055393344541 -0.5388225555568334 -0.5388225555568334 -0.5388225555568334 -0.6244404600187466 -0.6244404600187466 -0.6244404600187466 -0.6035421576148274 
-0.6035421576148274 -0.6035421576148274 0.04064415680924199 0.04064415680924199 0.04064415680924199 0.04620219392051145 0.04620219392051145 0.04620219392051145 -0.03133838037888395 
-0.03133838037888395 -0.03133838037888395 -0.03987983156579518 -0.03987983156579518 -0.03987983156579518 -0.04569394992677998 -0.04569394992677998 -0.04569394992677998 0.7861157245371813 
0.7861157245371813 0.7861157245371813 0.7848533595422718 0.7848533595422718 0.7848533595422718 0.7842990917826193 0.7842990917826193 0.7842990917826193 -0.6740798582120939 
-0.6740798582120939 -0.6740798582120939 -0.674101153597928 -0.674101153597928 -0.674101153597928 -0.6769218124382033 -0.6769218124382033 -0.6769218124382033 0.2744023953795045 
0.2744023953795045 0.2744023953795045 0.2899865169042412 0.2899865169042412 0.2899865169042412 0.3010962222016321 0.3010962222016321 0.3010962222016321 0.09081382462117195 
0.09081382462117195 0.09081382462117195 0.08489958848915992 0.08489958848915992 0.08489958848915992 0.06192304414972685 0.06192304414972685 0.06192304414972685 0.4397379229503654 
0.4397379229503654 0.4397379229503654 0.4424370001511327 0.4424370001511327 0.4424370001511327 0.4398898023408279 0.4398898023408279 0.4398898023408279 0.6579037089160599 
0.6579037089160599 0.6579037089160599 0.6483908553770208 0.6483908553770208 0.6483908553770208 0.6488815575201823 0.6488815575201823 0.6488815575201823 0.6374200250048224 
0.6374200250048224 0.6374200250048224 0.6590171686279833 0.6590171686279833 0.6590171686279833 -0.6382227641582103 -0.6382227641582103 -0.6382227641582103 -0.647916617760278 
-0.647916617760278 -0.647916617760278 -0.08975001327536987 -0.08975001327536987 -0.08975001327536987 -0.09834109336510735 -0.09834109336510735 -0.09834109336510735 0.361265690675305 
0.361265690675305 0.361265690675305 0.3745486176227157 0.3745486176227157 0.3745486176227157 -0.2107574852917098 -0.2107574852917098 -0.2107574852917098 -0.1952939663187897 
-0.1952939663187897 -0.1952939663187897 0.4737433445308958 0.4737433445308958 0.4737433445308958 0.4984971253856554 0.4984971253856554 0.4984971253856554 -0.6155639153274644 
-0.6155639153274644 -0.6155639153274644 -0.60594383853631 -0.60594383853631 -0.60594383853631 -0.1719857185591308 -0.1719857185591308 -0.1719857185591308 -0.1984235535567214 
-0.1984235535567214 -0.1984235535567214 -0.2697478983419778 -0.2697478983419778 -0.2697478983419778 -0.2813151642712568 -0.2813151642712568 -0.2813151642712568 -0.3989584875444706 
-0.3989584875444706 -0.3989584875444706 -0.3870563886006769 -0.3870563886006769 -0.3870563886006769 -0.2693573037340931 -0.2693573037340931 -0.2693573037340931 -0.2639805839230497 
-0.2639805839230497 -0.2639805839230497 -0.1567430865644501 -0.1567430865644501 -0.1567430865644501 -0.1851393502048151 -0.1851393502048151 -0.1851393502048151 0.02046263619754855 
0.02046263619754855 0.02046263619754855 0.02112222390760598 0.02112222390760598 0.02112222390760598 -0.790223836050891 -0.790223836050891 -0.790223836050891 -0.7880870986084659 
-0.7880870986084659 -0.7880870986084659 -0.01042881090485203 -0.01042881090485203 -0.01042881090485203 -0.009780811577369739 -0.009780811577369739 -0.009780811577369739 0.09205917822878137 
0.09205917822878137 0.09205917822878137 0.09768919064471168 0.09768919064471168 0.09768919064471168 0.1218656365956453 0.1218656365956453 0.1218656365956453 0.1283258795443529 
0.1283258795443529 0.1283258795443529 -0.5180546264106318 -0.5180546264106318 -0.5180546264106318 -0.5033414870326052 -0.5033414870326052 -0.5033414870326052 0.3638224633176342 
0.3638224633176342 0.3638224633176342 0.3702614688078868 0.3702614688078868 0.3702614688078868 -0.08497959918830456 -0.08497959918830456 -0.08497959918830456 -0.05727323235654098 
-0.05727323235654098 -0.05727323235654098 0.7174766326575363 0.7174766326575363 0.7174766326575363 0.7507483944273039 0.7507483944273039 0.7507483944273039 0.758978491684615 
0.758978491684615 0.758978491684615 0.1586999258587077 0.1586999258587077 0.1586999258587077 0.1357235142769851 0.1357235142769851 0.1357235142769851 -0.1982459129889758 
-0.1982459129889758 -0.1982459129889758 -0.2405228617979568 -0.2405228617979568 -0.2405228617979568 0.6100108886798941 0.6100108886798941 0.6100108886798941 0.6122377191031276 
0.6122377191031276 0.6122377191031276 -0.5596574247869229 -0.5596574247869229 -0.5596574247869229 -0.5467295956745478 -0.5467295956745478 -0.5467295956745478 -0.6884741411747789 
-0.6884741411747789 -0.6884741411747789 -0.6680172859140323 -0.6680172859140323 -0.6680172859140323 0.6572940409909291 0.6572940409909291 0.6572940409909291 0.660299876371673 
0.660299876371673 0.660299876371673 0.2427806213033716 0.2427806213033716 0.2427806213033716 0.2614934370743023 0.2614934370743023 0.2614934370743023 0.5313109475946793 
0.5313109475946793 0.5313109475946793 0.5208642889867634 0.5208642889867634 0.5208642889867634 0.02891908673070262 0.02891908673070262 0.02891908673070262 0.02360040402042785 
0.02360040402042785 0.02360040402042785 0.08524990615319267 0.08524990615319267 0.08524990615319267 0.08169587282854765 0.08169587282854765 0.08169587282854765 0.05758489421376554 
0.05758489421376554 0.05758489421376554 0.08183602379230737 0.08183602379230737 0.08183602379230737 0.1627454422690399 0.1627454422690399 0.1627454422690399 0.1874965122998374 
0.1874965122998374 0.1874965122998374 -0.5879965323903413 -0.5879965323903413 -0.5879965323903413 -0.5848668577238088 -0.5848668577238088 -0.5848668577238088 0.07557056400872378 
0.07557056400872378 0.07557056400872378 0.1009482166905407 0.1009482166905407 0.1009482166905407 0.62974776551575 0.62974776551575 0.62974776551575 0.6137982955624742 
0.6137982955624742 0.6137982955624742 -0.215887418951324 -0.215887418951324 -0.215887418951324 -0.2287715785248766 -0.2287715785248766 -0.2287715785248766 -0.2441951079998796 
-0.2441951079998796 -0.2441951079998796 -0.7770341159076609 -0.7770341159076609 -0.7770341159076609 -0.7686641604731606 -0.7686641604731606 -0.7686641604731606 -0.7595498578271875 
-0.7595498578271875 -0.7595498578271875 -0.7432151278911766 -0.7432151278911766 -0.7432151278911766 -0.7403992123872112 -0.7403992123872112 -0.7403992123872112 -0.7392830457351721 
-0.7392830457351721 -0.7392830457351721 0.2193346788678086 0.2193346788678086 0.2193346788678086 0.2261183029011406 0.2261183029011406 0.2261183029011406 0.2294652311856811 
0.2294652311856811 0.2294652311856811 -0.2872509775648924 -0.2872509775648924 -0.2872509775648924 -0.3033948181239868 -0.3033948181239868 -0.3033948181239868 -0.3167580082450593 
-0.3167580082450593 -0.3167580082450593 0.2513996550901171 0.2513996550901171 0.2513996550901171 0.2537918612124895 0.2537918612124895 0.2537918612124895 0.3078050587276121 
0.3078050587276121 0.3078050587276121 0.3143327184676388 0.3143327184676388 0.3143327184676388 0.297494216961922 0.297494216961922 0.297494216961922 -0.5820811208628042 
-0.5820811208628042 -0.5820811208628042 -0.5996042886884969 -0.5996042886884969 -0.5996042886884969 -0.600679537621053 -0.600679537621053 -0.600679537621053 -0.5230439750996038 
-0.5230439750996038 -0.5230439750996038 -0.5119567240139449 -0.5119567240139449 -0.5119567240139449 -0.5070167865527924 -0.5070167865527924 -0.5070167865527924 0.1483075966125231 
0.1483075966125231 0.1483075966125231 0.1266925027816173 0.1266925027816173 0.1266925027816173 0.1139980998127084 0.1139980998127084 0.1139980998127084 0.01660199866641782 
0.01660199866641782 0.01660199866641782 0.01149745088342223 0.01149745088342223 0.01149745088342223 -0.005600393352277631 -0.005600393352277631 -0.005600393352277631 0.4756852086920738 
0.4756852086920738 0.4756852086920738 0.4666416234409186 0.4666416234409186 0.4666416234409186 0.4763912948907109 0.4763912948907109 0.4763912948907109 -0.1912378392764716 
-0.1912378392764716 -0.1912378392764716 -0.180785372699827 -0.180785372699827 -0.180785372699827 -0.175121758300155 -0.175121758300155 -0.175121758300155 -0.2559562525335799 
-0.2559562525335799 -0.2559562525335799 -0.2694813091119403 -0.2694813091119403 -0.2694813091119403 -0.6422014637131455 -0.6422014637131455 -0.6422014637131455 -0.6496612758839351 
-0.6496612758839351 -0.6496612758839351 -0.6577606663155928 -0.6577606663155928 -0.6577606663155928 -0.237903738777786 -0.237903738777786 -0.237903738777786 -0.2115602523160622 
-0.2115602523160622 -0.2115602523160622 -0.2124901654419471 -0.2124901654419471 -0.2124901654419471 -0.2085500734113254 -0.2085500734113254 -0.2085500734113254 0.1197232768466794 
0.1197232768466794 0.1197232768466794 0.1428011521772936 0.1428011521772936 0.1428011521772936 -0.5938571863828543 -0.5938571863828543 -0.5938571863828543 -0.627448472771958 
-0.627448472771958 -0.627448472771958 0.7890657203481594 0.7890657203481594 0.7890657203481594 0.7847692210350696 0.7847692210350696 0.7847692210350696 0.337780648088882 
0.337780648088882 0.337780648088882 0.3275334692430832 0.3275334692430832 0.3275334692430832 -0.04163195495284312 -0.04163195495284312 -0.04163195495284312 -0.03880557365626457 
-0.03880557365626457 -0.03880557365626457 0.7459719871189719 0.7459719871189719 0.7459719871189719 0.7507392919866792 0.7507392919866792 0.7507392919866792 -0.2480495961486905 
-0.2480495961486905 -0.2480495961486905 -0.2576765527185722 -0.2576765527185722 -0.2576765527185722 -0.01095930277903675 -0.01095930277903675 -0.01095930277903675 0.02677200763713049 
0.02677200763713049 0.02677200763713049 0.09009294807048729 0.09009294807048729 0.09009294807048729 0.06184371237515788 0.06184371237515788 0.06184371237515788 -0.09744241083129036 
-0.09744241083129036 -0.09744241083129036 -0.08882871013562089 -0.08882871013562089 -0.08882871013562089 -0.2232630843466366 -0.2232630843466366 -0.2232630843466366 -0.2119334928544238 
-0.2119334928544238 -0.2119334928544238 0.08310033710475098 0.08310033710475098 0.08310033710475098 0.06009893802751308 0.06009893802751308 0.06009893802751308 0.5873323884522526 
0.5873323884522526 0.5873323884522526 0.5992075158746182 0.5992075158746182 0.5992075158746182 -0.2927559821398901 -0.2927559821398901 -0.2927559821398901 -0.3005650200430716 
-0.3005650200430716 -0.3005650200430716 -0.3115737681596736 -0.3115737681596736 -0.3115737681596736 -0.3117086824509485 -0.3117086824509485 -0.3117086824509485 0.4366760386510673 
0.4366760386510673 0.4366760386510673 0.4587032851853366 0.4587032851853366 0.4587032851853366 0.1867202430078173 0.1867202430078173 0.1867202430078173 0.1722658253167227 
0.1722658253167227 0.1722658253167227 -0.3732923013928113 -0.3732923013928113 -0.3732923013928113 -0.3779068862019159 -0.3779068862019159 -0.3779068862019159 0.0388571744233977 
0.0388571744233977 0.0388571744233977 0.02352453602447126 0.02352453602447126 0.02352453602447126 -0.0114661481285133 -0.0114661481285133 -0.0114661481285133 -0.01619183355964633 
-0.01619183355964633 -0.01619183355964633 0.4539090323944456 0.4539090323944456 0.4539090323944456 0.4651260103614701 0.4651260103614701 0.4651260103614701 -0.1060492489493894 
-0.1060492489493894 -0.1060492489493894 -0.1014610950010239 -0.1014610950010239 -0.1014610950010239 -0.2549908710415157 -0.2549908710415157 -0.2549908710415157 -0.2386805244999743 
-0.2386805244999743 -0.2386805244999743 -0.6868283247156538 -0.6868283247156538 -0.6868283247156538 -0.6771494283448194 -0.6771494283448194 -0.6771494283448194 -0.1508432843369278 
-0.1508432843369278 -0.1508432843369278 -0.1466238538767234 -0.1466238538767234 -0.1466238538767234 0.1215222292755539 0.1215222292755539 0.1215222292755539 0.1159431715698426 
0.1159431715698426 0.1159431715698426 0.06500612520080606 0.06500612520080606 0.06500612520080606 0.06164171069423587 0.06164171069423587 0.06164171069423587 -0.673451397522571 
-0.673451397522571 -0.673451397522571 -0.6588401975058316 -0.6588401975058316 -0.6588401975058316 0.002553861596923472 0.002553861596923472 0.002553861596923472 0.01275812034923892 
0.01275812034923892 0.01275812034923892 -0.1710012301949888 -0.1710012301949888 -0.1710012301949888 -0.1909225699348234 -0.1909225699348234 -0.1909225699348234 0.3691393824411451 
0.3691393824411451 0.3691393824411451 0.378256263970795 0.378256263970795 0.378256263970795 0.6352126644348088 0.6352126644348088 0.6352126644348088 0.6441669133694656 
0.6441669133694656 0.6441669133694656 -0.6710732136243563 -0.6710732136243563 -0.6710732136243563 -0.04087232932189384 -0.04087232932189384 -0.04087232932189384 -0.04342423191721649 
-0.04342423191721649 -0.04342423191721649 -0.5879486737462722 -0.5879486737462722 -0.5879486737462722 -0.6149759996089809 -0.6149759996089809 -0.6149759996089809 -0.6199351742993779 
-0.6199351742993779 -0.6199351742993779 -0.6110761972178765 -0.6110761972178765 -0.6110761972178765 0.08657473662664318 0.08657473662664318 0.08657473662664318 0.06366897935726923 
0.06366897935726923 0.06366897935726923 0.1111841471469335 0.1111841471469335 0.1111841471469335 0.1249990837792028 0.1249990837792028 0.1249990837792028 0.1274749535411572 
0.1274749535411572 0.1274749535411572 0.1395294282025332 0.1395294282025332 0.1395294282025332 -0.1875814287133585 -0.1875814287133585 -0.1875814287133585 -0.1660301574187753 
-0.1660301574187753 -0.1660301574187753 -0.2338769944864144 -0.2338769944864144 -0.2338769944864144 -0.2085132666306343 -0.2085132666306343 -0.2085132666306343 0.4420830625295812 
0.4420830625295812 0.4420830625295812 0.4360646530589057 0.4360646530589057 0.4360646530589057 -0.1776241191542716 -0.1776241191542716 -0.1776241191542716 -0.167743451162317 
-0.167743451162317 -0.167743451162317 0.2420645945413528 0.2420645945413528 0.2420645945413528 0.4128021966034277 0.4128021966034277 0.4128021966034277 0.4242803812575852 
0.4242803812575852 0.4242803812575852 0.6879555200690342 0.6879555200690342 0.6879555200690342 0.6890983600272441 0.6890983600272441 0.6890983600272441 -0.3760746101668718 
-0.3760746101668718 -0.3760746101668718 -0.3811028387865835 -0.3811028387865835 -0.3811028387865835 -0.5195138149253102 -0.5195138149253102 -0.5195138149253102 -0.5253453107408274 
-0.5253453107408274 -0.5253453107408274 0.0437477713291315 0.0437477713291315 0.0437477713291315 0.04419731184879076 0.04419731184879076 0.04419731184879076 0.6642471921274071 
0.6642471921274071 0.6642471921274071 -0.2260956355272336 -0.2260956355272336 -0.2260956355272336 -0.2020738765266104 -0.2020738765266104 -0.2020738765266104 -0.1311443476485558 
-0.1311443476485558 -0.1311443476485558 -0.1245697910452606 -0.1245697910452606 -0.1245697910452606 -0.2971921412713793 -0.2971921412713793 -0.2971921412713793 -0.2818396168504876 
-0.2818396168504876 -0.2818396168504876 -0.729739109620047 -0.729739109620047 -0.729739109620047 -0.7274464417339238 -0.7274464417339238 -0.7274464417339238 -0.06743192492812194 
-0.06743192492812194 -0.06743192492812194 -0.06747889995270362 -0.06747889995270362 -0.06747889995270362 0.7824429379456017 0.7824429379456017 0.7824429379456017 0.7851995514367816 
0.7851995514367816 0.7851995514367816 -0.211593681857965 -0.211593681857965 -0.211593681857965 -0.2037780968068047 -0.2037780968068047 -0.2037780968068047 0.4873032775720939 
0.4873032775720939 0.4873032775720939 0.4856977865015462 0.4856977865015462 0.4856977865015462 0.6741129681707464 0.6741129681707464 0.6741129681707464 0.6693652465133103 
0.6693652465133103 0.6693652465133103 -0.0005207069739083643 -0.0005207069739083643 -0.0005207069739083643 0.006296588815708139 0.006296588815708139 0.006296588815708139 0.3319231900067386 
0.3319231900067386 0.3319231900067386 0.3324598766090027 0.3324598766090027 0.3324598766090027 -0.0104226420970588 -0.0104226420970588 -0.0104226420970588 -0.0251422108128611 
-0.0251422108128611 -0.0251422108128611 -0.05862799432994872 -0.05862799432994872 -0.05862799432994872 -0.04983195815132434 -0.04983195815132434 -0.04983195815132434 0.1303156116012061 
0.1303156116012061 0.1303156116012061 0.1251372057465737 0.1251372057465737 0.1251372057465737 -0.4356505639313273 -0.4356505639313273 -0.4356505639313273 -0.05470064207363731 
-0.05470064207363731 -0.05470064207363731 -0.2781615426369493 -0.2781615426369493 -0.2781615426369493 -0.4523050569190888 -0.4523050569190888 -0.4523050569190888 -0.422998764120274 
-0.422998764120274 -0.422998764120274 0.2040910862380145 0.2040910862380145 0.2040910862380145 0.2051057786148939 0.2051057786148939 0.2051057786148939 0.6463788011615822 
0.6463788011615822 0.6463788011615822 0.6691942588200962 0.6691942588200962 0.6691942588200962 0.1152847845938498 0.1152847845938498 0.1152847845938498 0.09509211402754272 
0.09509211402754272 0.09509211402754272 0.4151311220147126 0.4151311220147126 0.4151311220147126 0.3925480228718377 0.3925480228718377 0.3925480228718377 0.3554398305842393 
0.3554398305842393 0.3554398305842393 0.3148437218631177 0.3148437218631177 0.3148437218631177 -0.07526608136344286 -0.07526608136344286 -0.07526608136344286 -0.0418683570156549 
-0.0418683570156549 -0.0418683570156549 -0.5488235197834933 -0.5488235197834933 -0.5488235197834933 -0.5187191343838927 -0.5187191343838927 -0.5187191343838927 -0.7732449798148309 
-0.7732449798148309 -0.7732449798148309 -0.7703756221913234 -0.7703756221913234 -0.7703756221913234 -0.3019530428489517 -0.3019530428489517 -0.3019530428489517 -0.3361473951924481 
-0.3361473951924481 -0.3361473951924481 -0.2522910642500451 -0.2522910642500451 -0.2522910642500451 -0.2228681522090184 -0.2228681522090184 -0.2228681522090184 -0.2079549581425141 
-0.2079549581425141 -0.2079549581425141 -0.1842926418051735 -0.1842926418051735 -0.1842926418051735 0.4576768946299868 0.4576768946299868 0.4576768946299868 0.4859909237730427 
0.4859909237730427 0.4859909237730427 -0.1751018049263044 -0.1751018049263044 -0.1751018049263044 -0.1882174576449861 -0.1882174576449861 -0.1882174576449861 0.1700687990584381 
0.1700687990584381 0.1700687990584381 0.1892958333767633 0.1892958333767633 0.1892958333767633 0.07665908016063147 0.07665908016063147 0.07665908016063147 0.07820744792131429 
0.07820744792131429 0.07820744792131429 -0.05881862290549223 -0.05881862290549223 -0.05881862290549223 0.5522761509835131 0.5522761509835131 0.5522761509835131 0.5325391881817053 
0.5325391881817053 0.5325391881817053 0.1057240560561168 0.1057240560561168 0.1057240560561168 0.1359077085371022 0.1359077085371022 0.1359077085371022 -0.3115238898612974 
-0.3115238898612974 -0.3115238898612974 -0.281566696777436 -0.281566696777436 -0.281566696777436 -0.5537153413289203 -0.5537153413289203 -0.5537153413289203 -0.5243286926435762 
-0.5243286926435762 -0.5243286926435762 0.1553676989638164 0.1553676989638164 0.1553676989638164 0.1451554062719546 0.1451554062719546 0.1451554062719546 0.2087487786043868 
0.2087487786043868 0.2087487786043868 0.1865902174067945 0.1865902174067945 0.1865902174067945 -0.01443463990603764 -0.01443463990603764 -0.01443463990603764 0.009559902309064896 
0.009559902309064896 0.009559902309064896 0.7040588173515712 0.7040588173515712 0.7040588173515712 0.7001903686548682 0.7001903686548682 0.7001903686548682 -0.5252046497221106 
-0.5252046497221106 -0.5252046497221106 -0.4998403356982373 -0.4998403356982373 -0.4998403356982373 -0.2150216862821868 -0.2150216862821868 -0.2150216862821868 -0.2093059212773852 
-0.2093059212773852 -0.2093059212773852 -0.5109909811490815 -0.5109909811490815 -0.5109909811490815 -0.5046092077659264 -0.5046092077659264 -0.5046092077659264 0.08733865849588673 
0.08733865849588673 0.08733865849588673 0.07157380182922926 0.07157380182922926 0.07157380182922926 -0.2316343566722069 -0.2316343566722069 -0.2316343566722069 -0.2424217486261112 
-0.2424217486261112 -0.2424217486261112 0.7424022777737431 0.7424022777737431 0.7424022777737431 0.7533489293617178 0.7533489293617178 0.7533489293617178 0.4989402674358097 
0.4989402674358097 0.4989402674358097 0.5205130702759411 0.5205130702759411 0.5205130702759411 -0.5178204962849928 -0.5178204962849928 -0.5178204962849928 -0.4906893290883535 
-0.4906893290883535 -0.4906893290883535 -0.5787505216812897 -0.5787505216812897 -0.5787505216812897 -0.5968029081438759 -0.5968029081438759 -0.5968029081438759 0.4750013446971904 
0.4750013446971904 0.4750013446971904 0.4843742469483083 0.4843742469483083 0.4843742469483083 -0.2538507929208971 -0.2538507929208971 -0.2538507929208971 -0.280543197251631 
-0.280543197251631 -0.280543197251631 -0.4939024618069231 -0.4939024618069231 -0.4939024618069231 -0.4816823510811597 -0.4816823510811597 -0.4816823510811597 0.1042464200901849 
0.1042464200901849 0.1042464200901849 0.08804006433442331 0.08804006433442331 0.08804006433442331 0.7404797413405622 0.7404797413405622 0.7404797413405622 0.7551223631098029 
0.7551223631098029 0.7551223631098029 -0.6485114511614963 -0.6485114511614963 -0.6485114511614963 -0.6647232848049194 -0.6647232848049194 -0.6647232848049194 0.03574239457783316 
0.03574239457783316 0.03574239457783316 0.02819064092994312 0.02819064092994312 0.02819064092994312 0.392241019414686 0.392241019414686 0.392241019414686 0.3609452201236254 
0.3609452201236254 0.3609452201236254 -0.3589427613970958 -0.3589427613970958 -0.3589427613970958 -0.3538199074506028 -0.3538199074506028 -0.3538199074506028 -0.1080412491684586 
-0.1080412491684586 -0.1080412491684586 -0.1342400132479406 -0.1342400132479406 -0.1342400132479406 -0.1445851352554416 -0.1445851352554416 -0.1445851352554416 -0.1382691220932452 
-0.1382691220932452 -0.1382691220932452 0.2375755677205486 0.2375755677205486 0.2375755677205486 0.2426082277099121 0.2426082277099121 0.2426082277099121 0.2461838497439477 
0.2461838497439477 0.2461838497439477 0.2421756590972362 0.2421756590972362 0.2421756590972362 -0.1855177599906453 -0.1855177599906453 -0.1855177599906453 -0.2082195489438702 
-0.2082195489438702 -0.2082195489438702 -0.3466455284869359 -0.3466455284869359 -0.3466455284869359 -0.3591562430810673 -0.3591562430810673 -0.3591562430810673 -0.5869751464914703 
-0.5869751464914703 -0.5869751464914703 -0.6086785692209444 -0.6086785692209444 -0.6086785692209444 -0.2810930427381884 -0.2810930427381884 -0.2810930427381884 -0.3224488460904533 
-0.3224488460904533 -0.3224488460904533 -0.4181302185169667 -0.4181302185169667 -0.4181302185169667 -0.4477906359358613 -0.4477906359358613 -0.4477906359358613 -0.1943612977210232 
-0.1943612977210232 -0.1943612977210232 -0.2240433710249914 -0.2240433710249914 -0.2240433710249914 0.4069572540010133 0.4069572540010133 0.4069572540010133 0.3794355725895321 
0.3794355725895321 0.3794355725895321 -0.5446370087085983 -0.5446370087085983 -0.5446370087085983 -0.5658613897250588 -0.5658613897250588 -0.5658613897250588 -0.3263579458236231 
-0.3263579458236231 -0.3263579458236231 -0.3509802749437234 -0.3509802749437234 -0.3509802749437234 0.7702702887850991 0.7702702887850991 0.7702702887850991 0.7598818041077285 
0.7598818041077285 0.7598818041077285 0.006288657777615451 0.006288657777615451 0.006288657777615451 -0.02264171178927383 -0.02264171178927383 -0.02264171178927383 0.7963530463945492 
0.7963530463945492 0.7963530463945492 0.7938517381623537 0.7938517381623537 0.7938517381623537 0.3909153149901741 0.3909153149901741 0.3909153149901741 0.3627565942418355 
0.3627565942418355 0.3627565942418355 0.4881535538143726 0.4881535538143726 0.4881535538143726 0.4623073844758053 0.4623073844758053 0.4623073844758053 0.4595516394339091 
0.4595516394339091 0.4595516394339091 0.4604167286749874 0.4604167286749874 0.4604167286749874 -0.1187083564041977 -0.1187083564041977 -0.1187083564041977 -0.08176966681635298 
-0.08176966681635298 -0.08176966681635298 -0.07746497715525531 -0.07746497715525531 -0.07746497715525531 -0.1394819981869617 -0.1394819981869617 -0.1394819981869617 -0.1457611248648379 
-0.1457611248648379 -0.1457611248648379 -0.1138785913625595 -0.1138785913625595 -0.1138785913625595 -0.2634707302594452 -0.2634707302594452 -0.2634707302594452 -0.243488751997382 
-0.243488751997382 -0.243488751997382 -0.2302134999141544 -0.2302134999141544 -0.2302134999141544 0.1641943061064377 0.1641943061064377 0.1641943061064377 0.1654844456051748 
0.1654844456051748 0.1654844456051748 0.1891690700321604 0.1891690700321604 0.1891690700321604 -0.19778541205212 -0.19778541205212 -0.19778541205212 -0.2058831473774289 
-0.2058831473774289 -0.2058831473774289 -0.232331322729397 -0.232331322729397 -0.232331322729397 -0.06569613452069829 -0.06569613452069829 -0.06569613452069829 -0.0639193341445424 
-0.0639193341445424 -0.0639193341445424 -0.05796413534299408 -0.05796413534299408 -0.05796413534299408 0.7486812103015215 0.7486812103015215 0.7486812103015215 0.008667427373968918 
0.008667427373968918 0.008667427373968918 -0.0238547769907374 -0.0238547769907374 -0.0238547769907374 -0.03035447611939193 -0.03035447611939193 -0.03035447611939193 0.3040135869231982 
0.3040135869231982 0.3040135869231982 0.2871374204491408 0.2871374204491408 0.2871374204491408 0.2544324030246087 0.2544324030246087 0.2544324030246087 -0.1728642983756962 
-0.1728642983756962 -0.1728642983756962 -0.1979198129834536 -0.1979198129834536 -0.1979198129834536 -0.2150340051623203 -0.2150340051623203 -0.2150340051623203 0.02211382181295174 
0.02211382181295174 0.02211382181295174 0.03171167471709496 0.03171167471709496 0.03171167471709496 0.04708660534371576 0.04708660534371576 0.04708660534371576 0.2250201330290963 
0.2250201330290963 0.2250201330290963 0.2398830716824439 0.2398830716824439 0.2398830716824439 0.2581306980629429 0.2581306980629429 0.2581306980629429 -0.4788753038992473 
-0.4788753038992473 -0.4788753038992473 -0.5176146019517631 -0.5176146019517631 -0.5176146019517631 -0.4860635326242415 -0.4860635326242415 -0.4860635326242415 0.5461812881869054 
0.5461812881869054 0.5461812881869054 0.5316819687918977 0.5316819687918977 0.5316819687918977 0.5201257472536087 0.5201257472536087 0.5201257472536087 -0.4094823330572906 
-0.4094823330572906 -0.4094823330572906 -0.4180240687642789 -0.4180240687642789 -0.4180240687642789 -0.4504551882087938 -0.4504551882087938 -0.4504551882087938 -0.1103472776499842 
-0.1103472776499842 -0.1103472776499842 -0.1256123522802501 -0.1256123522802501 -0.1256123522802501 -0.1333628779377072 -0.1333628779377072 -0.1333628779377072 0.09516370069319727 
0.09516370069319727 0.09516370069319727 0.07469538844556897 0.07469538844556897 0.07469538844556897 0.05642697115288151 0.05642697115288151 0.05642697115288151 -0.7817582794068666 
-0.7817582794068666 -0.7817582794068666 -0.7790495405781839 -0.7790495405781839 -0.7790495405781839 -0.7756453053067035 -0.7756453053067035 -0.7756453053067035 0.1127135243978636 
0.1127135243978636 0.1127135243978636 0.1419153186083224 0.1419153186083224 0.1419153186083224 0.1467826293206158 0.1467826293206158 0.1467826293206158 0.714636012446576 
0.714636012446576 0.714636012446576 0.7218230066161523 0.7218230066161523 0.7218230066161523 0.7265216774392017 0.7265216774392017 0.7265216774392017 0.670909417021291 
0.670909417021291 0.670909417021291 0.6613099887685787 0.6613099887685787 0.6613099887685787 0.6558912714173988 0.6558912714173988 0.6558912714173988 -0.06986252177295559 
-0.06986252177295559 -0.06986252177295559 -0.06341274725318095 -0.06341274725318095 -0.06341274725318095 -0.06223540000711433 -0.06223540000711433 -0.06223540000711433 0.01693967717626631 
0.01693967717626631 0.01693967717626631 0.01850616648038372 0.01850616648038372 0.01850616648038372 0.01690217827024092 0.01690217827024092 0.01690217827024092 0.03541883895686068 
0.03541883895686068 0.03541883895686068 0.03060769259927117 0.03060769259927117 0.03060769259927117 0.0208254130579095 0.0208254130579095 0.0208254130579095 -0.5425823671044432 
-0.5425823671044432 -0.5425823671044432 -0.571620670335718 -0.571620670335718 -0.571620670335718 -0.578370127935481 -0.578370127935481 -0.578370127935481 0.07992912033903296 
0.07992912033903296 0.07992912033903296 0.09623158518697764 0.09623158518697764 0.09623158518697764 0.1000893158362429 0.1000893158362429 0.1000893158362429 0.1219544731281252 
0.1219544731281252 0.1219544731281252 0.09052506952730718 0.09052506952730718 0.09052506952730718 0.08282600152557848 0.08282600152557848 0.08282600152557848 -0.01646584892058853 