Title = Triangle100
FileType = Solution
Variables = q
Zone T = Triangle100
ZoneType = FETriangle
Nodes = 99072
Elements = 33024
DataPacking = Block
StrandID = 12
SolutionTime = 1.1
-0.4787798769798038 -0.4787798769798038 -0.4787798769798038 -0.4517805404123622 -0.4517805404123622 -0.4517805404123622 -0.4446139569780516 -0.4446139569780516 -0.4446139569780516 0.1369702680054885 
0.1369702680054885 0.1369702680054885 0.1164575971706887 0.1164575971706887 0.1164575971706887 -0.5335509382148279 -0.5335509382148279 -0.5335509382148279 -0.5470731249047818 
-0.5470731249047818 -0.5470731249047818 -0.1773431829137206 -0.1773431829137206 -0.1773431829137206 -0.1854184238206763 -0.1854184238206763 -0.1854184238206763 -0.410307590706623 
-0.410307590706623 -0.410307590706623 -0.3965481673366831 -0.3965481673366831 -0.3965481673366831 0.005858395661915387 0.005858395661915387 0.005858395661915387 -0.02057256759184927 
-0.02057256759184927 -0.02057256759184927 0.1735097685043923 0.1735097685043923 0.1735097685043923 0.1553843697497631 0.1553843697497631 0.1553843697497631 -0.06976880797958118 
-0.06976880797958118 -0.06976880797958118 -0.04432911942099799 -0.04432911942099799 -0.04432911942099799 -0.08800591597661608 -0.08800591597661608 -0.08800591597661608 -0.09796022725064227 
-0.09796022725064227 -0.09796022725064227 -0.5879927232128486 -0.5879927232128486 -0.5879927232128486 -0.6098170412818603 -0.6098170412818603 -0.6098170412818603 -0.5684402513850589 
-0.5684402513850589 -0.5684402513850589 -0.1321966077864803 -0.1321966077864803 -0.1321966077864803 -0.124277566470581 -0.124277566470581 -0.124277566470581 -0.2618648354231981 
-0.2618648354231981 -0.2618648354231981 -0.2879882103126308 -0.2879882103126308 -0.2879882103126308 -0.1483243989460786 -0.1483243989460786 -0.1483243989460786 -0.1508981072695414 
-0.1508981072695414 -0.1508981072695414 0.3487453060147409 0.3487453060147409 0.3487453060147409 0.383225965963814 0.383225965963814 0.383225965963814 0.7300202589084737 
0.7300202589084737 0.7300202589084737 0.7420665463352797 0.7420665463352797 0.7420665463352797 0.7491486044687425 0.7491486044687425 0.7491486044687425 -0.2612072724841709 
-0.2612072724841709 -0.2612072724841709 -0.2436335647857293 -0.2436335647857293 -0.2436335647857293 -0.2325218110460585 -0.2325218110460585 -0.2325218110460585 0.2244027298752319 
0.2244027298752319 0.2244027298752319 0.2339986924038849 0.2339986924038849 0.2339986924038849 0.2065325608064754 0.2065325608064754 0.2065325608064754 -0.04789016447427243 
-0.04789016447427243 -0.04789016447427243 -0.03124991951287014 -0.03124991951287014 -0.03124991951287014 -0.02604411375357223 -0.02604411375357223 -0.02604411375357223 -0.05843861826289684 
-0.05843861826289684 -0.05843861826289684 -0.06850154053522911 -0.06850154053522911 -0.06850154053522911 -0.07119100432732582 -0.07119100432732582 -0.07119100432732582 0.2467549213244339 
0.2467549213244339 0.2467549213244339 0.2611274008578577 0.2611274008578577 0.2611274008578577 0.2765457128681776 0.2765457128681776 0.2765457128681776 0.1729097993165401 
0.1729097993165401 0.1729097993165401 0.1846776989991553 0.1846776989991553 0.1846776989991553 0.1735973163769385 0.1735973163769385 0.1735973163769385 -0.6612451343410953 
-0.6612451343410953 -0.6612451343410953 -0.637745164632324 -0.637745164632324 -0.637745164632324 -0.03311719463657086 -0.03311719463657086 -0.03311719463657086 -0.0376878282563538 
-0.0376878282563538 -0.0376878282563538 0.3686686427192728 0.3686686427192728 0.3686686427192728 0.3496594159927275 0.3496594159927275 0.3496594159927275 -0.002549663378098958 
-0.002549663378098958 -0.002549663378098958 -0.02165676178898636 -0.02165676178898636 -0.02165676178898636 -0.3887836205083082 -0.3887836205083082 -0.3887836205083082 -0.3598005530526556 
-0.3598005530526556 -0.3598005530526556 -0.3003121615110483 -0.3003121615110483 -0.3003121615110483 -0.3065661330112555 -0.3065661330112555 -0.3065661330112555 0.5653971778445381 
0.5653971778445381 0.5653971778445381 0.5809984086294866 0.5809984086294866 0.5809984086294866 -0.574445406152617 -0.574445406152617 -0.574445406152617 -0.5517833209078968 
-0.5517833209078968 -0.5517833209078968 0.5534536008196455 0.5534536008196455 0.5534536008196455 0.5471650918977385 0.5471650918977385 0.5471650918977385 0.006252699689649515 
0.006252699689649515 0.006252699689649515 -0.001767021122858405 -0.001767021122858405 -0.001767021122858405 -0.5045980207279206 -0.5045980207279206 -0.5045980207279206 -0.5195617597341899 
-0.5195617597341899 -0.5195617597341899 0.4841300312595516 0.4841300312595516 0.4841300312595516 0.4700184684464078 0.4700184684464078 0.4700184684464078 0.3561653921433617 
0.3561653921433617 0.3561653921433617 0.3497393789934339 0.3497393789934339 0.3497393789934339 0.3259561298004224 0.3259561298004224 0.3259561298004224 0.341086739376914 
0.341086739376914 0.341086739376914 0.3674365724029998 0.3674365724029998 0.3674365724029998 0.3746641551405836 0.3746641551405836 0.3746641551405836 0.1913714803657777 
0.1913714803657777 0.1913714803657777 0.1940788735707302 0.1940788735707302 0.1940788735707302 -0.6049781839127747 -0.6049781839127747 -0.6049781839127747 -0.6078260115166534 
-0.6078260115166534 -0.6078260115166534 -0.3246388145928575 -0.3246388145928575 -0.3246388145928575 -0.3240557456252873 -0.3240557456252873 -0.3240557456252873 -0.3223904312410829 
-0.3223904312410829 -0.3223904312410829 -0.3105978151684941 -0.3105978151684941 -0.3105978151684941 0.1231953229855747 0.1231953229855747 0.1231953229855747 0.09819224729154385 
0.09819224729154385 0.09819224729154385 -0.04082758702143562 -0.04082758702143562 -0.04082758702143562 -0.4738718159396565 -0.4738718159396565 -0.4738718159396565 -0.4523972456130099 
-0.4523972456130099 -0.4523972456130099 -0.09082856887598706 -0.09082856887598706 -0.09082856887598706 -0.1141482645790622 -0.1141482645790622 -0.1141482645790622 0.1730844156180728 
0.1730844156180728 0.1730844156180728 0.1979115660205356 0.1979115660205356 0.1979115660205356 -0.6881117193784574 -0.6881117193784574 -0.6881117193784574 -0.6697004967111719 
-0.6697004967111719 -0.6697004967111719 0.0902738482052115 0.0902738482052115 0.0902738482052115 0.119169949846761 0.119169949846761 0.119169949846761 0.1994466388532202 
0.1994466388532202 0.1994466388532202 0.1778640483199058 0.1778640483199058 0.1778640483199058 -0.6404572751041411 -0.6404572751041411 -0.6404572751041411 -0.6312687550018714 
-0.6312687550018714 -0.6312687550018714 -0.5288805667627113 -0.5288805667627113 -0.5288805667627113 -0.4985234274837982 -0.4985234274837982 -0.4985234274837982 -0.5104884562615457 
-0.5104884562615457 -0.5104884562615457 -0.4908405809771673 -0.4908405809771673 -0.4908405809771673 -0.1259905316390729 -0.1259905316390729 -0.1259905316390729 -0.1467949740347297 
-0.1467949740347297 -0.1467949740347297 0.3174536512683979 0.3174536512683979 0.3174536512683979 0.2746935157295599 0.2746935157295599 0.2746935157295599 0.2184866348166384 
0.2184866348166384 0.2184866348166384 0.192963670772791 0.192963670772791 0.192963670772791 0.6729228477037061 0.6729228477037061 0.6729228477037061 0.6424025972821914 
0.6424025972821914 0.6424025972821914 -0.2114762598417663 -0.2114762598417663 -0.2114762598417663 -0.2017120362893579 -0.2017120362893579 -0.2017120362893579 0.1569820371860172 
0.1569820371860172 0.1569820371860172 0.1082641987453187 0.1082641987453187 0.1082641987453187 0.1839275600676097 0.1839275600676097 0.1839275600676097 0.2137293778015507 
0.2137293778015507 0.2137293778015507 -0.6646651767627685 -0.6646651767627685 -0.6646651767627685 -0.6572738891917796 -0.6572738891917796 -0.6572738891917796 -0.6477449925904513 
-0.6477449925904513 -0.6477449925904513 0.09370233509992124 0.09370233509992124 0.09370233509992124 0.06015232123658647 0.06015232123658647 0.06015232123658647 0.04024062754255148 
0.04024062754255148 0.04024062754255148 0.271798831863706 0.271798831863706 0.271798831863706 0.2822534264067003 0.2822534264067003 0.2822534264067003 0.2959362389800435 
0.2959362389800435 0.2959362389800435 -0.1401786701439648 -0.1401786701439648 -0.1401786701439648 -0.132524475152503 -0.132524475152503 -0.132524475152503 -0.1178769862859635 
-0.1178769862859635 -0.1178769862859635 0.8584544536635517 0.8584544536635517 0.8584544536635517 0.8582051083427862 0.8582051083427862 0.8582051083427862 0.8551196784475021 
0.8551196784475021 0.8551196784475021 -0.06748293368905778 -0.06748293368905778 -0.06748293368905778 -0.08289455832375744 -0.08289455832375744 -0.08289455832375744 -0.413104225354454 
-0.413104225354454 -0.413104225354454 -0.3986049561288625 -0.3986049561288625 -0.3986049561288625 -0.37036066510615 -0.37036066510615 -0.37036066510615 0.2202418831304448 
0.2202418831304448 0.2202418831304448 0.2352818023800898 0.2352818023800898 0.2352818023800898 0.2613565949353087 0.2613565949353087 0.2613565949353087 0.3292327429901305 
0.3292327429901305 0.3292327429901305 0.3289897693852047 0.3289897693852047 0.3289897693852047 0.3370383611748513 0.3370383611748513 0.3370383611748513 0.150686048947067 
0.150686048947067 0.150686048947067 0.1707528535245622 0.1707528535245622 0.1707528535245622 0.1715759369084329 0.1715759369084329 0.1715759369084329 -0.09707113352855597 
-0.09707113352855597 -0.09707113352855597 -0.1035852575954395 -0.1035852575954395 -0.1035852575954395 -0.1075683197413866 -0.1075683197413866 -0.1075683197413866 -0.5161937926760209 
-0.5161937926760209 -0.5161937926760209 -0.4933459765025074 -0.4933459765025074 -0.4933459765025074 -0.483528195343516 -0.483528195343516 -0.483528195343516 -0.5929961626865305 
-0.5929961626865305 -0.5929961626865305 -0.6098889703617016 -0.6098889703617016 -0.6098889703617016 -0.6212483527844809 -0.6212483527844809 -0.6212483527844809 -0.6400286641649494 
-0.6400286641649494 -0.6400286641649494 -0.6305558022431381 -0.6305558022431381 -0.6305558022431381 -0.0669299678262516 -0.0669299678262516 -0.0669299678262516 -0.06572656476139119 
-0.06572656476139119 -0.06572656476139119 -0.05922884299552961 -0.05922884299552961 -0.05922884299552961 0.519004491084373 0.519004491084373 0.519004491084373 0.5125228734088613 
0.5125228734088613 0.5125228734088613 -0.6815201894832446 -0.6815201894832446 -0.6815201894832446 -0.6835780283538943 -0.6835780283538943 -0.6835780283538943 -0.4140347495762312 
-0.4140347495762312 -0.4140347495762312 -0.4464170956483162 -0.4464170956483162 -0.4464170956483162 0.125383661092354 0.125383661092354 0.125383661092354 0.1523063801303657 
0.1523063801303657 0.1523063801303657 -0.1693914837202833 -0.1693914837202833 -0.1693914837202833 -0.155952486471559 -0.155952486471559 -0.155952486471559 -0.5232419500056673 
-0.5232419500056673 -0.5232419500056673 -0.5372625240827384 -0.5372625240827384 -0.5372625240827384 0.6249207636961198 0.6249207636961198 0.6249207636961198 0.6149869343690311 
0.6149869343690311 0.6149869343690311 -0.4634579612088117 -0.4634579612088117 -0.4634579612088117 -0.4501304396769384 -0.4501304396769384 -0.4501304396769384 0.09096783478540404 
0.09096783478540404 0.09096783478540404 0.09019291848255517 0.09019291848255517 0.09019291848255517 0.117436809365085 0.117436809365085 0.117436809365085 0.09196859780148688 
0.09196859780148688 0.09196859780148688 0.02393831582116911 0.02393831582116911 0.02393831582116911 0.002040738492008332 0.002040738492008332 0.002040738492008332 -0.5920974331007403 
-0.5920974331007403 -0.5920974331007403 -0.5859063275435676 -0.5859063275435676 -0.5859063275435676 0.0653333217748911 0.0653333217748911 0.0653333217748911 0.06563867314948393 
0.06563867314948393 0.06563867314948393 0.146902469955059 0.146902469955059 0.146902469955059 0.1676352826986473 0.1676352826986473 0.1676352826986473 -0.7111289762975416 
-0.7111289762975416 -0.7111289762975416 -0.6993639874713338 -0.6993639874713338 -0.6993639874713338 0.6901187873831793 0.6901187873831793 0.6901187873831793 0.6868162693908368 
0.6868162693908368 0.6868162693908368 0.6493994103923109 0.6493994103923109 0.6493994103923109 0.6685153543471715 0.6685153543471715 0.6685153543471715 -0.3660049717786881 
-0.3660049717786881 -0.3660049717786881 -0.3597448211893968 -0.3597448211893968 -0.3597448211893968 0.6746491677766175 0.6746491677766175 0.6746491677766175 0.6817037577620374 
0.6817037577620374 0.6817037577620374 0.02730022734557303 0.02730022734557303 0.02730022734557303 0.03473545211030429 0.03473545211030429 0.03473545211030429 -0.6094833883561077 
-0.6094833883561077 -0.6094833883561077 -0.6115695916304804 -0.6115695916304804 -0.6115695916304804 0.5510672654634142 0.5510672654634142 0.5510672654634142 0.5293202097743354 
0.5293202097743354 0.5293202097743354 -0.7975174773950001 -0.7975174773950001 -0.7975174773950001 -0.7909941438328769 -0.7909941438328769 -0.7909941438328769 0.3291474249551264 
0.3291474249551264 0.3291474249551264 0.3395137858667712 0.3395137858667712 0.3395137858667712 0.5812164138229398 0.5812164138229398 0.5812164138229398 0.5510491918879016 
0.5510491918879016 0.5510491918879016 0.1054292513717433 0.1054292513717433 0.1054292513717433 0.1097909811692745 0.1097909811692745 0.1097909811692745 0.2236343340884563 
0.2236343340884563 0.2236343340884563 0.2152830531010045 0.2152830531010045 0.2152830531010045 0.1896292006949419 0.1896292006949419 0.1896292006949419 0.1877720865205868 
0.1877720865205868 0.1877720865205868 -0.5181792112196005 -0.5181792112196005 -0.5181792112196005 -0.4994830562516365 -0.4994830562516365 -0.4994830562516365 0.1970548616163192 
0.1970548616163192 0.1970548616163192 0.184014705708249 0.184014705708249 0.184014705708249 -0.5949980102871306 -0.5949980102871306 -0.5949980102871306 -0.5832455312771065 
-0.5832455312771065 -0.5832455312771065 -0.656886885789598 -0.656886885789598 -0.656886885789598 -0.6417600476847957 -0.6417600476847957 -0.6417600476847957 -0.6707186652362195 
-0.6707186652362195 -0.6707186652362195 -0.6642522130375906 -0.6642522130375906 -0.6642522130375906 -0.6683316512939439 -0.6683316512939439 -0.6683316512939439 -0.6573320663901435 
-0.6573320663901435 -0.6573320663901435 0.1972064089099265 0.1972064089099265 0.1972064089099265 -0.3430446320438544 -0.3430446320438544 -0.3430446320438544 -0.3391475113993135 
-0.3391475113993135 -0.3391475113993135 0.6674018041698757 0.6674018041698757 0.6674018041698757 0.6585800427229023 0.6585800427229023 0.6585800427229023 0.5946061829464928 
0.5946061829464928 0.5946061829464928 0.6053257028743242 0.6053257028743242 0.6053257028743242 0.2478276202592291 0.2478276202592291 0.2478276202592291 0.2373637357625216 
0.2373637357625216 0.2373637357625216 0.1273738733826895 0.1273738733826895 0.1273738733826895 0.1418738904372845 0.1418738904372845 0.1418738904372845 -0.0398709945549306 
-0.0398709945549306 -0.0398709945549306 -0.02930282498560973 -0.02930282498560973 -0.02930282498560973 -0.2866066491992429 -0.2866066491992429 -0.2866066491992429 -0.3058633289978744 
-0.3058633289978744 -0.3058633289978744 0.7322284201209841 0.7322284201209841 0.7322284201209841 0.7183134145865426 0.7183134145865426 0.7183134145865426 -0.3107059555357907 
-0.3107059555357907 -0.3107059555357907 -0.3235409177043435 -0.3235409177043435 -0.3235409177043435 0.7606734467905386 0.7606734467905386 0.7606734467905386 0.7698403532814146 
0.7698403532814146 0.7698403532814146 -0.09244734803097855 -0.09244734803097855 -0.09244734803097855 0.3449057358572745 0.3449057358572745 0.3449057358572745 0.3579219441590742 
0.3579219441590742 0.3579219441590742 0.1168490952142173 0.1168490952142173 0.1168490952142173 0.1073147113685592 0.1073147113685592 0.1073147113685592 -0.01081246863986802 
-0.01081246863986802 -0.01081246863986802 -0.00889572040975301 -0.00889572040975301 -0.00889572040975301 -0.3490557527252616 -0.3490557527252616 -0.3490557527252616 -0.3501098097669471 
-0.3501098097669471 -0.3501098097669471 -0.5489008831622197 -0.5489008831622197 -0.5489008831622197 -0.5725395785909375 -0.5725395785909375 -0.5725395785909375 0.1510583868602591 
0.1510583868602591 0.1510583868602591 -0.6611622839673635 -0.6611622839673635 -0.6611622839673635 -0.6798593485983778 -0.6798593485983778 -0.6798593485983778 0.04684805474061542 
0.04684805474061542 0.04684805474061542 0.06217316755296005 0.06217316755296005 0.06217316755296005 0.7783743324603477 0.7783743324603477 0.7783743324603477 0.7864020333532964 
0.7864020333532964 0.7864020333532964 0.3703964305047411 0.3703964305047411 0.3703964305047411 0.3972653445127219 0.3972653445127219 0.3972653445127219 0.6363891134390638 
0.6363891134390638 0.6363891134390638 0.6076913634587033 0.6076913634587033 0.6076913634587033 -0.3650356468036558 -0.3650356468036558 -0.3650356468036558 -0.350062020619165 
-0.350062020619165 -0.350062020619165 -0.1114644545393463 -0.1114644545393463 -0.1114644545393463 -0.1110789723269655 -0.1110789723269655 -0.1110789723269655 -0.08341894887573009 
-0.08341894887573009 -0.08341894887573009 -0.0777966627720024 -0.0777966627720024 -0.0777966627720024 -0.1911681604242148 -0.1911681604242148 -0.1911681604242148 -0.1502742698878499 
-0.1502742698878499 -0.1502742698878499 -0.4003966977762028 -0.4003966977762028 -0.4003966977762028 -0.4104358265083493 -0.4104358265083493 -0.4104358265083493 -0.00589689334400231 
-0.00589689334400231 -0.00589689334400231 0.0002060000782709621 0.0002060000782709621 0.0002060000782709621 0.3933819003220878 0.3933819003220878 0.3933819003220878 0.3881359827515072 
0.3881359827515072 0.3881359827515072 -0.1866660135400386 -0.1866660135400386 -0.1866660135400386 -0.1840836405761758 -0.1840836405761758 -0.1840836405761758 0.1808981746372399 
0.1808981746372399 0.1808981746372399 0.1917450227426023 0.1917450227426023 0.1917450227426023 -0.04590669627030171 -0.04590669627030171 -0.04590669627030171 0.3067095494884412 
0.3067095494884412 0.3067095494884412 0.1038970759338187 0.1038970759338187 0.1038970759338187 0.7128294692414211 0.7128294692414211 0.7128294692414211 0.7170832286611191 
0.7170832286611191 0.7170832286611191 0.6068408830379743 0.6068408830379743 0.6068408830379743 0.5852586006109771 0.5852586006109771 0.5852586006109771 -0.6446314497401795 
-0.6446314497401795 -0.6446314497401795 -0.6168016982471409 -0.6168016982471409 -0.6168016982471409 -0.1359258451566814 -0.1359258451566814 -0.1359258451566814 -0.1570484410954342 
-0.1570484410954342 -0.1570484410954342 -0.4174763031579147 -0.4174763031579147 -0.4174763031579147 -0.3713919139430185 -0.3713919139430185 -0.3713919139430185 0.2255997408979007 
0.2255997408979007 0.2255997408979007 0.2395882683514503 0.2395882683514503 0.2395882683514503 0.7372778952232193 0.7372778952232193 0.7372778952232193 0.7165775567279598 
0.7165775567279598 0.7165775567279598 -0.227633477448324 -0.227633477448324 -0.227633477448324 -0.2428353003097221 -0.2428353003097221 -0.2428353003097221 0.3824407231487192 
0.3824407231487192 0.3824407231487192 0.4073463561417158 0.4073463561417158 0.4073463561417158 0.5879035222520946 0.5879035222520946 0.5879035222520946 0.6138344757009861 
0.6138344757009861 0.6138344757009861 -0.3709288924349526 -0.3709288924349526 -0.3709288924349526 -0.4153834963754578 -0.4153834963754578 -0.4153834963754578 -0.1463189966095781 
-0.1463189966095781 -0.1463189966095781 -0.1648924048763304 -0.1648924048763304 -0.1648924048763304 -0.2155943355909774 -0.2155943355909774 -0.2155943355909774 -0.2241018339673843 
-0.2241018339673843 -0.2241018339673843 -0.4757244511983363 -0.4757244511983363 -0.4757244511983363 -0.4456889908549518 -0.4456889908549518 -0.4456889908549518 -0.3770332983846051 
-0.3770332983846051 -0.3770332983846051 -0.3515262979347969 -0.3515262979347969 -0.3515262979347969 0.1869203618331724 0.1869203618331724 0.1869203618331724 0.2098907715081001 
0.2098907715081001 0.2098907715081001 0.7562497567631482 0.7562497567631482 0.7562497567631482 0.06465407393601301 0.06465407393601301 0.06465407393601301 0.05107348750913474 
0.05107348750913474 0.05107348750913474 -0.1826076665303967 -0.1826076665303967 -0.1826076665303967 -0.1670808554369385 -0.1670808554369385 -0.1670808554369385 0.7130894436634524 
0.7130894436634524 0.7130894436634524 0.7082338050822619 0.7082338050822619 0.7082338050822619 -0.2651554642051109 -0.2651554642051109 -0.2651554642051109 -0.3021361029992961 
-0.3021361029992961 -0.3021361029992961 0.3227422991316393 0.3227422991316393 0.3227422991316393 0.2828864535238702 0.2828864535238702 0.2828864535238702 0.5706083987189363 
0.5706083987189363 0.5706083987189363 0.5654234730847475 0.5654234730847475 0.5654234730847475 0.2275636433307419 0.2275636433307419 0.2275636433307419 0.1879718245439865 
0.1879718245439865 0.1879718245439865 -0.01023075106760538 -0.01023075106760538 -0.01023075106760538 -0.02925700705271654 -0.02925700705271654 -0.02925700705271654 0.3922906796376661 
0.3922906796376661 0.3922906796376661 0.4034950051040379 0.4034950051040379 0.4034950051040379 0.1266334739286129 0.1266334739286129 0.1266334739286129 0.090135888709858 
0.090135888709858 0.090135888709858 -0.1484413666532845 -0.1484413666532845 -0.1484413666532845 -0.1192595380310287 -0.1192595380310287 -0.1192595380310287 -0.5369780110007224 
-0.5369780110007224 -0.5369780110007224 -0.5202015128736983 -0.5202015128736983 -0.5202015128736983 -0.5341537740190125 -0.5341537740190125 -0.5341537740190125 -0.5551482019646334 
-0.5551482019646334 -0.5551482019646334 -0.3983334407093978 -0.3983334407093978 -0.3983334407093978 -0.3743884691753104 -0.3743884691753104 -0.3743884691753104 0.06584030877187513 
0.06584030877187513 0.06584030877187513 0.05351948258676163 0.05351948258676163 0.05351948258676163 0.3490897642994622 0.3490897642994622 0.3490897642994622 0.3332569651473374 
0.3332569651473374 0.3332569651473374 0.3948738464187145 0.3948738464187145 0.3948738464187145 0.4109618306938124 0.4109618306938124 0.4109618306938124 0.03355328791993741 
0.03355328791993741 0.03355328791993741 0.04964535750100198 0.04964535750100198 0.04964535750100198 0.626164062886401 0.626164062886401 0.626164062886401 0.6293288503071843 
0.6293288503071843 0.6293288503071843 -0.2703060450428786 -0.2703060450428786 -0.2703060450428786 -0.2596333908787845 -0.2596333908787845 -0.2596333908787845 -0.8479429949510343 
-0.8479429949510343 -0.8479429949510343 -0.8480252452381013 -0.8480252452381013 -0.8480252452381013 -0.4749965956526888 -0.4749965956526888 -0.4749965956526888 -0.4450230385835163 
-0.4450230385835163 -0.4450230385835163 -0.01554842876166311 -0.01554842876166311 -0.01554842876166311 0.02984429575001024 0.02984429575001024 0.02984429575001024 0.2986299844238532 
0.2986299844238532 0.2986299844238532 0.3306708476603851 0.3306708476603851 0.3306708476603851 -0.455183598120781 -0.455183598120781 -0.455183598120781 -0.4573210514466458 
-0.4573210514466458 -0.4573210514466458 -0.01170634282217543 -0.01170634282217543 -0.01170634282217543 -0.01971771164827097 -0.01971771164827097 -0.01971771164827097 -0.6922135726608692 
-0.6922135726608692 -0.6922135726608692 -0.6880837557523091 -0.6880837557523091 -0.6880837557523091 0.255784731797342 0.255784731797342 0.255784731797342 0.2641766693291174 
0.2641766693291174 0.2641766693291174 -0.109345785464568 -0.109345785464568 -0.109345785464568 -0.08252740706964512 -0.08252740706964512 -0.08252740706964512 -0.7520426604213475 
-0.7520426604213475 -0.7520426604213475 -0.7299039432930945 -0.7299039432930945 -0.7299039432930945 0.05585348913060904 0.05585348913060904 0.05585348913060904 0.1009579243668518 
0.1009579243668518 0.1009579243668518 -0.1176690325498731 -0.1176690325498731 -0.1176690325498731 -0.1527719036873954 -0.1527719036873954 -0.1527719036873954 -0.1230743985592575 
-0.1230743985592575 -0.1230743985592575 -0.09894717393457614 -0.09894717393457614 -0.09894717393457614 0.07158464730011233 0.07158464730011233 0.07158464730011233 0.06677221367174577 
0.06677221367174577 0.06677221367174577 0.03865706883086962 0.03865706883086962 0.03865706883086962 0.04062234655157908 0.04062234655157908 0.04062234655157908 -0.5074080755559669 
-0.5074080755559669 -0.5074080755559669 -0.5146297930697894 -0.5146297930697894 -0.5146297930697894 -0.007978811211525751 -0.007978811211525751 -0.007978811211525751 0.01002316853279009 
0.01002316853279009 0.01002316853279009 -0.337510465713786 -0.337510465713786 -0.337510465713786 -0.3070132316818764 -0.3070132316818764 -0.3070132316818764 -0.04328678591012207 
-0.04328678591012207 -0.04328678591012207 -0.02839812647947728 -0.02839812647947728 -0.02839812647947728 -0.3772969203276071 -0.3772969203276071 -0.3772969203276071 -0.4048731494276325 
-0.4048731494276325 -0.4048731494276325 -0.3981214066347268 -0.3981214066347268 -0.3981214066347268 -0.3616009171784801 -0.3616009171784801 -0.3616009171784801 -0.2436420603671523 
-0.2436420603671523 -0.2436420603671523 -0.2259450029641594 -0.2259450029641594 -0.2259450029641594 0.232952981168855 0.232952981168855 0.232952981168855 0.2634207895470533 
0.2634207895470533 0.2634207895470533 -0.0912859006071656 -0.0912859006071656 -0.0912859006071656 -0.07151110764706821 -0.07151110764706821 -0.07151110764706821 -0.07502541471072692 
-0.07502541471072692 -0.07502541471072692 -0.08255979079228519 -0.08255979079228519 -0.08255979079228519 0.2433968100635046 0.2433968100635046 0.2433968100635046 0.2685273809395718 
0.2685273809395718 0.2685273809395718 0.2780420878486114 0.2780420878486114 0.2780420878486114 -0.1778844299520031 -0.1778844299520031 -0.1778844299520031 -0.1792697123089353 
-0.1792697123089353 -0.1792697123089353 -0.2023766907273843 -0.2023766907273843 -0.2023766907273843 0.7850112217627845 0.7850112217627845 0.7850112217627845 0.7886053640362839 
0.7886053640362839 0.7886053640362839 0.7676718384414022 0.7676718384414022 0.7676718384414022 0.7082374925002786 0.7082374925002786 0.7082374925002786 0.7028809038477366 
0.7028809038477366 0.7028809038477366 0.683643802000732 0.683643802000732 0.683643802000732 0.140401635437012 0.140401635437012 0.140401635437012 0.1317539618961536 
0.1317539618961536 0.1317539618961536 0.1217031520171345 0.1217031520171345 0.1217031520171345 0.5244397212706651 0.5244397212706651 0.5244397212706651 0.5081248245314687 
0.5081248245314687 0.5081248245314687 0.4684667857074641 0.4684667857074641 0.4684667857074641 -0.4375175393157166 -0.4375175393157166 -0.4375175393157166 0.1366241442122038 
0.1366241442122038 0.1366241442122038 0.1465507326215245 0.1465507326215245 0.1465507326215245 0.1388859506985211 0.1388859506985211 0.1388859506985211 -0.5164669568342368 
-0.5164669568342368 -0.5164669568342368 -0.5220411053017744 -0.5220411053017744 -0.5220411053017744 -0.4816783694656666 -0.4816783694656666 -0.4816783694656666 0.07027561518976491 
0.07027561518976491 0.07027561518976491 0.05563690231934258 0.05563690231934258 0.05563690231934258 0.07736640798459282 0.07736640798459282 0.07736640798459282 0.3353877419330443 
0.3353877419330443 0.3353877419330443 0.3017163372209805 0.3017163372209805 0.3017163372209805 0.2822164650552947 0.2822164650552947 0.2822164650552947 0.4380607612735335 
0.4380607612735335 0.4380607612735335 0.4211032650513671 0.4211032650513671 0.4211032650513671 0.4198194788358508 0.4198194788358508 0.4198194788358508 0.4177069809501673 
0.4177069809501673 0.4177069809501673 0.4029255639271894 0.4029255639271894 0.4029255639271894 0.3518328085303622 0.3518328085303622 0.3518328085303622 0.08614511836113509 
0.08614511836113509 0.08614511836113509 0.09172591259153093 0.09172591259153093 0.09172591259153093 0.09081052105370431 0.09081052105370431 0.09081052105370431 0.03219401293008889 
0.03219401293008889 0.03219401293008889 0.03181130805418515 0.03181130805418515 0.03181130805418515 0.0388039727020728 0.0388039727020728 0.0388039727020728 0.1032722268186654 
0.1032722268186654 0.1032722268186654 0.09199754832069203 0.09199754832069203 0.09199754832069203 0.07810368089891818 0.07810368089891818 0.07810368089891818 0.2061806175239004 
0.2061806175239004 0.2061806175239004 0.2283641982162725 0.2283641982162725 0.2283641982162725 0.2527243643493265 0.2527243643493265 0.2527243643493265 0.3357269906062462 
0.3357269906062462 0.3357269906062462 0.3552300225729599 0.3552300225729599 0.3552300225729599 0.3714120929670477 0.3714120929670477 0.3714120929670477 0.07459064327042859 
0.07459064327042859 0.07459064327042859 0.07146505739738158 0.07146505739738158 0.07146505739738158 0.08521845982149284 0.08521845982149284 0.08521845982149284 -0.002492660860249536 
-0.002492660860249536 -0.002492660860249536 -0.01251743675722252 -0.01251743675722252 -0.01251743675722252 -0.02798841195078842 -0.02798841195078842 -0.02798841195078842 -0.5944424287580683 
-0.5944424287580683 -0.5944424287580683 -0.6163826170860369 -0.6163826170860369 -0.6163826170860369 -0.6320109155973944 -0.6320109155973944 -0.6320109155973944 -0.4231960641110979 
-0.4231960641110979 -0.4231960641110979 -0.4075296894478325 -0.4075296894478325 -0.4075296894478325 -0.3936097625071358 -0.3936097625071358 -0.3936097625071358 0.4942075752177969 
0.4942075752177969 0.4942075752177969 0.4815377509305219 0.4815377509305219 0.4815377509305219 0.4643725257050989 0.4643725257050989 0.4643725257050989 -0.3744372688478842 
-0.3744372688478842 -0.3744372688478842 -0.3757081803941559 -0.3757081803941559 -0.3757081803941559 -0.3752339495429515 -0.3752339495429515 -0.3752339495429515 0.571639061571327 
0.571639061571327 0.571639061571327 0.5564134361324288 0.5564134361324288 0.5564134361324288 0.5430437543326805 0.5430437543326805 0.5430437543326805 0.6205673154379641 
0.6205673154379641 0.6205673154379641 0.6042089785351781 0.6042089785351781 0.6042089785351781 0.5922013869339018 0.5922013869339018 0.5922013869339018 0.01897225153342984 
0.01897225153342984 0.01897225153342984 0.03355841252346986 0.03355841252346986 0.03355841252346986 0.02508855639462427 0.02508855639462427 0.02508855639462427 0.7101320782664057 