Title = Triangle100
FileType = Solution
Variables = q
Zone T = Triangle100
ZoneType = FETriangle
Nodes = 99072
Elements = 33024
DataPacking = Block
StrandID = 15
SolutionTime = 1.4
-0.1704491100041695 -0.1704491100041695 -0.1704491100041695 -0.1826429000405015 -0.1826429000405015 -0.1826429000405015 -0.1904541874516813 -0.1904541874516813 -0.1904541874516813 -0.8323658946673339 
-0.8323658946673339 -0.8323658946673339 -0.8364731025975943 -0.8364731025975943 -0.8364731025975943 0.6583730219919866 0.6583730219919866 0.6583730219919866 0.6419775541428946 
0.6419775541428946 0.6419775541428946 0.0910929830555572 0.0910929830555572 0.0910929830555572 0.09454553763050919 0.09454553763050919 0.09454553763050919 0.03686069017142547 
0.03686069017142547 0.03686069017142547 0.03022363441107317 0.03022363441107317 0.03022363441107317 -0.3258229913698028 -0.3258229913698028 -0.3258229913698028 -0.3507998484012802 
-0.3507998484012802 -0.3507998484012802 -0.6281930791561824 -0.6281930791561824 -0.6281930791561824 -0.6209656786940246 -0.6209656786940246 -0.6209656786940246 0.8000001093458998 
0.8000001093458998 0.8000001093458998 0.7963345619185034 0.7963345619185034 0.7963345619185034 -0.7575198206727303 -0.7575198206727303 -0.7575198206727303 -0.7505620371494703 
-0.7505620371494703 -0.7505620371494703 0.4099513761140497 0.4099513761140497 0.4099513761140497 0.4468945897954945 0.4468945897954945 0.4468945897954945 0.4777238260838679 
0.4777238260838679 0.4777238260838679 -0.0811828921982222 -0.0811828921982222 -0.0811828921982222 -0.1083795831017572 -0.1083795831017572 -0.1083795831017572 0.04134835118053232 
0.04134835118053232 0.04134835118053232 0.04132983994874867 0.04132983994874867 0.04132983994874867 0.150089465831899 0.150089465831899 0.150089465831899 0.1760307880729795 
0.1760307880729795 0.1760307880729795 0.03742710687132472 0.03742710687132472 0.03742710687132472 0.03503561746383406 0.03503561746383406 0.03503561746383406 0.07628480755120864 
0.07628480755120864 0.07628480755120864 0.05686060048257748 0.05686060048257748 0.05686060048257748 0.0445452034847489 0.0445452034847489 0.0445452034847489 -0.1217234359774743 
-0.1217234359774743 -0.1217234359774743 -0.1384779035170869 -0.1384779035170869 -0.1384779035170869 -0.1447108747103383 -0.1447108747103383 -0.1447108747103383 0.4063283242166426 
0.4063283242166426 0.4063283242166426 0.3985963000544207 0.3985963000544207 0.3985963000544207 0.416967019496038 0.416967019496038 0.416967019496038 -0.328437862918288 
-0.328437862918288 -0.328437862918288 -0.3315600333003048 -0.3315600333003048 -0.3315600333003048 -0.3408524791100851 -0.3408524791100851 -0.3408524791100851 0.8290412887835488 
0.8290412887835488 0.8290412887835488 0.832451324674962 0.832451324674962 0.832451324674962 0.8361060160318378 0.8361060160318378 0.8361060160318378 0.515667143834879 
0.515667143834879 0.515667143834879 0.5015268632424343 0.5015268632424343 0.5015268632424343 0.4911239875855321 0.4911239875855321 0.4911239875855321 5.297458721524653e-05 
5.297458721524653e-05 5.297458721524653e-05 -0.00587177138998063 -0.00587177138998063 -0.00587177138998063 -0.03890181981569964 -0.03890181981569964 -0.03890181981569964 0.130539595764489 
0.130539595764489 0.130539595764489 0.142048931022453 0.142048931022453 0.142048931022453 0.3228285964095307 0.3228285964095307 0.3228285964095307 0.3012617950597409 
0.3012617950597409 0.3012617950597409 0.281985679976136 0.281985679976136 0.281985679976136 0.2524633829800925 0.2524633829800925 0.2524633829800925 -0.6293608474135661 
-0.6293608474135661 -0.6293608474135661 -0.6108633026163807 -0.6108633026163807 -0.6108633026163807 0.02965483520177722 0.02965483520177722 0.02965483520177722 0.03372302146401177 
0.03372302146401177 0.03372302146401177 0.6779843295027781 0.6779843295027781 0.6779843295027781 0.6579591347183615 0.6579591347183615 0.6579591347183615 0.09353316908039744 
0.09353316908039744 0.09353316908039744 0.08225875924679582 0.08225875924679582 0.08225875924679582 -0.03873874245776114 -0.03873874245776114 -0.03873874245776114 -0.03255543730138316 
-0.03255543730138316 -0.03255543730138316 0.1253178781134866 0.1253178781134866 0.1253178781134866 0.131219683834627 0.131219683834627 0.131219683834627 0.731028098380605 
0.731028098380605 0.731028098380605 0.7354205790636145 0.7354205790636145 0.7354205790636145 -0.406545664016407 -0.406545664016407 -0.406545664016407 -0.3930787955154016 
-0.3930787955154016 -0.3930787955154016 0.1168421860923781 0.1168421860923781 0.1168421860923781 0.1329350955140865 0.1329350955140865 0.1329350955140865 -0.4260566640389998 
-0.4260566640389998 -0.4260566640389998 -0.4091931556726638 -0.4091931556726638 -0.4091931556726638 0.01720766464805586 0.01720766464805586 0.01720766464805586 0.009515693182787917 
0.009515693182787917 0.009515693182787917 -0.2753197935411242 -0.2753197935411242 -0.2753197935411242 -0.2915261686593822 -0.2915261686593822 -0.2915261686593822 -0.8113471901539772 
-0.8113471901539772 -0.8113471901539772 -0.8062738480498438 -0.8062738480498438 -0.8062738480498438 0.4195098701475999 0.4195098701475999 0.4195098701475999 0.4345885023610789 
0.4345885023610789 0.4345885023610789 0.01025947682951211 0.01025947682951211 0.01025947682951211 0.02970450658797736 0.02970450658797736 0.02970450658797736 0.7454887577712005 
0.7454887577712005 0.7454887577712005 0.7439390701277313 0.7439390701277313 0.7439390701277313 -0.8395359396611731 -0.8395359396611731 -0.8395359396611731 -0.8403710374509653 
-0.8403710374509653 -0.8403710374509653 -0.2775256521160158 -0.2775256521160158 -0.2775256521160158 0.1184742593718843 0.1184742593718843 0.1184742593718843 0.07174021966531161 
0.07174021966531161 0.07174021966531161 -0.7440215793821655 -0.7440215793821655 -0.7440215793821655 -0.7282299136398189 -0.7282299136398189 -0.7282299136398189 -0.8190217527794769 
-0.8190217527794769 -0.8190217527794769 -0.8058467983480356 -0.8058467983480356 -0.8058467983480356 0.1190672284837091 0.1190672284837091 0.1190672284837091 0.07009687831230993 
0.07009687831230993 0.07009687831230993 -0.5747933573483019 -0.5747933573483019 -0.5747933573483019 -0.5967964948932929 -0.5967964948932929 -0.5967964948932929 0.407208598168277 
0.407208598168277 0.407208598168277 0.4459703391021359 0.4459703391021359 0.4459703391021359 0.152900497544366 0.152900497544366 0.152900497544366 0.112468781536709 
0.112468781536709 0.112468781536709 -0.1289950145192074 -0.1289950145192074 -0.1289950145192074 -0.1485254965792506 -0.1485254965792506 -0.1485254965792506 -0.184756227755943 
-0.184756227755943 -0.184756227755943 -0.2035147882414192 -0.2035147882414192 -0.2035147882414192 0.8457096892571198 0.8457096892571198 0.8457096892571198 0.8458880889856868 
0.8458880889856868 0.8458880889856868 0.01076746682475981 0.01076746682475981 0.01076746682475981 0.009526481774115057 0.009526481774115057 0.009526481774115057 -0.3256372584228975 
-0.3256372584228975 -0.3256372584228975 -0.3608865250067592 -0.3608865250067592 -0.3608865250067592 0.2528405933611056 0.2528405933611056 0.2528405933611056 0.2836151702824124 
0.2836151702824124 0.2836151702824124 0.09902311118954657 0.09902311118954657 0.09902311118954657 0.1196090454926836 0.1196090454926836 0.1196090454926836 -0.3095589072532516 
-0.3095589072532516 -0.3095589072532516 -0.3188688139092142 -0.3188688139092142 -0.3188688139092142 -0.07032761992732195 -0.07032761992732195 -0.07032761992732195 -0.04483937334997937 
-0.04483937334997937 -0.04483937334997937 -0.1237347944514978 -0.1237347944514978 -0.1237347944514978 -0.1306197720803636 -0.1306197720803636 -0.1306197720803636 -0.1394221149088744 
-0.1394221149088744 -0.1394221149088744 -0.06169039289310523 -0.06169039289310523 -0.06169039289310523 -0.05556254180702042 -0.05556254180702042 -0.05556254180702042 -0.09084757407552509 
-0.09084757407552509 -0.09084757407552509 0.2666957560791467 0.2666957560791467 0.2666957560791467 0.2643856350660964 0.2643856350660964 0.2643856350660964 0.2554161360406785 
0.2554161360406785 0.2554161360406785 -0.3062649602753637 -0.3062649602753637 -0.3062649602753637 -0.3180895833449301 -0.3180895833449301 -0.3180895833449301 -0.3315138435415956 
-0.3315138435415956 -0.3315138435415956 -0.08661594557867808 -0.08661594557867808 -0.08661594557867808 -0.09708796202561162 -0.09708796202561162 -0.09708796202561162 -0.1006897124003481 
-0.1006897124003481 -0.1006897124003481 -0.3134411590504316 -0.3134411590504316 -0.3134411590504316 -0.3395623583132733 -0.3395623583132733 -0.3395623583132733 -0.2113903515787842 
-0.2113903515787842 -0.2113903515787842 -0.2226238697499612 -0.2226238697499612 -0.2226238697499612 -0.2304223411120893 -0.2304223411120893 -0.2304223411120893 -0.5749660582715392 
-0.5749660582715392 -0.5749660582715392 -0.5558923520027574 -0.5558923520027574 -0.5558923520027574 -0.5559011797942843 -0.5559011797942843 -0.5559011797942843 0.3469209799657019 
0.3469209799657019 0.3469209799657019 0.3449993377663546 0.3449993377663546 0.3449993377663546 0.3368783602560761 0.3368783602560761 0.3368783602560761 -0.8090039557586391 
-0.8090039557586391 -0.8090039557586391 -0.8069454187387117 -0.8069454187387117 -0.8069454187387117 -0.8136343484589261 -0.8136343484589261 -0.8136343484589261 0.844536726976449 
0.844536726976449 0.844536726976449 0.8455908370897306 0.8455908370897306 0.8455908370897306 0.8462414362617153 0.8462414362617153 0.8462414362617153 -0.1835747683449309 
-0.1835747683449309 -0.1835747683449309 -0.20210320308415 -0.20210320308415 -0.20210320308415 -0.210498895489764 -0.210498895489764 -0.210498895489764 -0.3390731398889598 
-0.3390731398889598 -0.3390731398889598 -0.322342755448537 -0.322342755448537 -0.322342755448537 -0.3103684744218381 -0.3103684744218381 -0.3103684744218381 -0.1463842257487072 
-0.1463842257487072 -0.1463842257487072 -0.1548033590667032 -0.1548033590667032 -0.1548033590667032 0.2612007269892349 0.2612007269892349 0.2612007269892349 0.251690403226444 
0.251690403226444 0.251690403226444 0.2491774849262335 0.2491774849262335 0.2491774849262335 0.1324488956643959 0.1324488956643959 0.1324488956643959 0.1263721309623891 
0.1263721309623891 0.1263721309623891 -0.1604396895837346 -0.1604396895837346 -0.1604396895837346 -0.1519415855222961 -0.1519415855222961 -0.1519415855222961 0.7356211124353627 
0.7356211124353627 0.7356211124353627 0.7158372023564574 0.7158372023564574 0.7158372023564574 -0.5439826894406401 -0.5439826894406401 -0.5439826894406401 -0.5077151961131319 
-0.5077151961131319 -0.5077151961131319 -0.09024622809155139 -0.09024622809155139 -0.09024622809155139 -0.1181714551504288 -0.1181714551504288 -0.1181714551504288 0.6737214730746205 
0.6737214730746205 0.6737214730746205 0.6660226717905543 0.6660226717905543 0.6660226717905543 0.0962648077488833 0.0962648077488833 0.0962648077488833 0.1122593245963006 
0.1122593245963006 0.1122593245963006 0.1985349158292334 0.1985349158292334 0.1985349158292334 0.1933008834094158 0.1933008834094158 0.1933008834094158 0.3399893467065708 
0.3399893467065708 0.3399893467065708 0.3604033472557104 0.3604033472557104 0.3604033472557104 -0.8451452899702998 -0.8451452899702998 -0.8451452899702998 -0.8439406694874388 
-0.8439406694874388 -0.8439406694874388 0.8018163179348514 0.8018163179348514 0.8018163179348514 0.8143545094724653 0.8143545094724653 0.8143545094724653 -0.04140916714579623 
-0.04140916714579623 -0.04140916714579623 -0.04069426766164499 -0.04069426766164499 -0.04069426766164499 0.3647221248488511 0.3647221248488511 0.3647221248488511 0.3505766550134815 
0.3505766550134815 0.3505766550134815 -0.3174261183355557 -0.3174261183355557 -0.3174261183355557 -0.2841043035394317 -0.2841043035394317 -0.2841043035394317 0.1251988214925955 
0.1251988214925955 0.1251988214925955 0.122179298883278 0.122179298883278 0.122179298883278 -0.5100654119777723 -0.5100654119777723 -0.5100654119777723 -0.5168272424448014 
-0.5168272424448014 -0.5168272424448014 -0.5643281444924022 -0.5643281444924022 -0.5643281444924022 -0.5419764133120923 -0.5419764133120923 -0.5419764133120923 0.694656110133586 
0.694656110133586 0.694656110133586 0.6811658519347783 0.6811658519347783 0.6811658519347783 0.2380219793484943 0.2380219793484943 0.2380219793484943 0.2365133227090927 
0.2365133227090927 0.2365133227090927 0.7289999146541464 0.7289999146541464 0.7289999146541464 0.7157053780293849 0.7157053780293849 0.7157053780293849 -0.05624903904240336 
-0.05624903904240336 -0.05624903904240336 -0.05387841066904306 -0.05387841066904306 -0.05387841066904306 0.2484527315880616 0.2484527315880616 0.2484527315880616 0.2634121543102923 
0.2634121543102923 0.2634121543102923 0.1104234079135062 0.1104234079135062 0.1104234079135062 0.1102811222306493 0.1102811222306493 0.1102811222306493 0.3300278143073168 
0.3300278143073168 0.3300278143073168 0.3156124684572498 0.3156124684572498 0.3156124684572498 -0.6247221282739508 -0.6247221282739508 -0.6247221282739508 -0.6505694354802921 
-0.6505694354802921 -0.6505694354802921 0.422004131718774 0.422004131718774 0.422004131718774 0.4431190541733832 0.4431190541733832 0.4431190541733832 0.5336051789472139 
0.5336051789472139 0.5336051789472139 0.5619673676361143 0.5619673676361143 0.5619673676361143 -0.7926182247541658 -0.7926182247541658 -0.7926182247541658 -0.7988671597718238 
-0.7988671597718238 -0.7988671597718238 0.1345547577208418 0.1345547577208418 0.1345547577208418 0.1336437187867978 0.1336437187867978 0.1336437187867978 0.4272638878599008 
0.4272638878599008 0.4272638878599008 0.4522866437981387 0.4522866437981387 0.4522866437981387 -0.2205851921087795 -0.2205851921087795 -0.2205851921087795 -0.2115635257034231 
-0.2115635257034231 -0.2115635257034231 -0.2695162587322095 -0.2695162587322095 -0.2695162587322095 -0.2815072030800897 -0.2815072030800897 -0.2815072030800897 0.5429686645731525 
0.5429686645731525 0.5429686645731525 0.5480124871408821 0.5480124871408821 0.5480124871408821 0.1630768232499065 0.1630768232499065 0.1630768232499065 0.1599952025618309 
0.1599952025618309 0.1599952025618309 0.4303144981127004 0.4303144981127004 0.4303144981127004 0.5624549586820669 0.5624549586820669 0.5624549586820669 0.5483430055459169 
0.5483430055459169 0.5483430055459169 -0.02309013072235625 -0.02309013072235625 -0.02309013072235625 -0.04690624326101411 -0.04690624326101411 -0.04690624326101411 0.05244624532347025 
0.05244624532347025 0.05244624532347025 0.04686478866182612 0.04686478866182612 0.04686478866182612 0.6604054583817356 0.6604054583817356 0.6604054583817356 0.6663138449935426 
0.6663138449935426 0.6663138449935426 -0.0305757991108083 -0.0305757991108083 -0.0305757991108083 -0.0414292857270652 -0.0414292857270652 -0.0414292857270652 -0.08616045290045543 
-0.08616045290045543 -0.08616045290045543 -0.1011647716937543 -0.1011647716937543 -0.1011647716937543 0.05378174833494901 0.05378174833494901 0.05378174833494901 0.03721047251618374 
0.03721047251618374 0.03721047251618374 0.03642521072512415 0.03642521072512415 0.03642521072512415 0.04358582692448441 0.04358582692448441 0.04358582692448441 0.7002262832163586 
0.7002262832163586 0.7002262832163586 0.7028637949769468 0.7028637949769468 0.7028637949769468 0.02672216492063886 0.02672216492063886 0.02672216492063886 0.0236002446750215 
0.0236002446750215 0.0236002446750215 -0.3292613973230026 -0.3292613973230026 -0.3292613973230026 0.4568863418335798 0.4568863418335798 0.4568863418335798 0.4318900052803106 
0.4318900052803106 0.4318900052803106 -0.03958671907560042 -0.03958671907560042 -0.03958671907560042 -0.0645259330343966 -0.0645259330343966 -0.0645259330343966 0.7356568034699046 
0.7356568034699046 0.7356568034699046 0.7296407092395066 0.7296407092395066 0.7296407092395066 -0.03918157743646043 -0.03918157743646043 -0.03918157743646043 -0.05711880993381753 
-0.05711880993381753 -0.05711880993381753 -0.06349212988411634 -0.06349212988411634 -0.06349212988411634 -0.06104321223047027 -0.06104321223047027 -0.06104321223047027 -0.04332270374043051 
-0.04332270374043051 -0.04332270374043051 -0.2194066617415954 -0.2194066617415954 -0.2194066617415954 -0.2108195145559051 -0.2108195145559051 -0.2108195145559051 0.2640045973606987 
0.2640045973606987 0.2640045973606987 0.2476979472647695 0.2476979472647695 0.2476979472647695 -0.001038043946751642 -0.001038043946751642 -0.001038043946751642 -0.003806998110017694 
-0.003806998110017694 -0.003806998110017694 -0.3266527639200575 -0.3266527639200575 -0.3266527639200575 -0.3228269856951786 -0.3228269856951786 -0.3228269856951786 -0.01280337175637096 
-0.01280337175637096 -0.01280337175637096 -0.02019045818525855 -0.02019045818525855 -0.02019045818525855 -0.008736616442641603 -0.008736616442641603 -0.008736616442641603 -0.01632576868044517 
-0.01632576868044517 -0.01632576868044517 0.7963080401271447 0.7963080401271447 0.7963080401271447 0.8024314863863516 0.8024314863863516 0.8024314863863516 -0.6089585291451594 
-0.6089585291451594 -0.6089585291451594 -0.6168146961980696 -0.6168146961980696 -0.6168146961980696 0.4406736081413004 0.4406736081413004 0.4406736081413004 0.4391874320211147 
0.4391874320211147 0.4391874320211147 0.4980942400443738 0.4980942400443738 0.4980942400443738 0.5136145706715829 0.5136145706715829 0.5136145706715829 -0.5781560987522585 
-0.5781560987522585 -0.5781560987522585 -0.5893459690900461 -0.5893459690900461 -0.5893459690900461 0.0661296296835554 0.0661296296835554 0.0661296296835554 0.0742782092644102 
0.0742782092644102 0.0742782092644102 0.8287396453975459 0.8287396453975459 0.8287396453975459 0.8320978006638948 0.8320978006638948 0.8320978006638948 -0.7953509563379306 
-0.7953509563379306 -0.7953509563379306 -0.7880671259081657 -0.7880671259081657 -0.7880671259081657 0.3677740764024406 0.3677740764024406 0.3677740764024406 0.5297551538020431 
0.5297551538020431 0.5297551538020431 -0.7822450941712279 -0.7822450941712279 -0.7822450941712279 -0.4633971264742796 -0.4633971264742796 -0.4633971264742796 -0.473129130391901 
-0.473129130391901 -0.473129130391901 0.3204385582217303 0.3204385582217303 0.3204385582217303 0.3452990690760274 0.3452990690760274 0.3452990690760274 0.09811426458757722 
0.09811426458757722 0.09811426458757722 0.09479465509635709 0.09479465509635709 0.09479465509635709 -0.7130606029585251 -0.7130606029585251 -0.7130606029585251 -0.6985976380232933 
-0.6985976380232933 -0.6985976380232933 0.6936443143322807 0.6936443143322807 0.6936443143322807 0.7198708499743823 0.7198708499743823 0.7198708499743823 -0.1572041046641608 
-0.1572041046641608 -0.1572041046641608 -0.1336261489507393 -0.1336261489507393 -0.1336261489507393 0.04205096612878163 0.04205096612878163 0.04205096612878163 0.0471145764165798 
0.0471145764165798 0.0471145764165798 0.1207885596083516 0.1207885596083516 0.1207885596083516 0.1248814210337943 0.1248814210337943 0.1248814210337943 0.04872800853334006 
0.04872800853334006 0.04872800853334006 0.008241562005900153 0.008241562005900153 0.008241562005900153 -0.6256305876884434 -0.6256305876884434 -0.6256305876884434 -0.6014670213855968 
-0.6014670213855968 -0.6014670213855968 0.04723160310117311 0.04723160310117311 0.04723160310117311 0.02309952295803912 0.02309952295803912 0.02309952295803912 0.7387485213111905 
0.7387485213111905 0.7387485213111905 0.7478270801497332 0.7478270801497332 0.7478270801497332 -0.435026412957277 -0.435026412957277 -0.435026412957277 -0.4391187096836944 
-0.4391187096836944 -0.4391187096836944 -0.4596554406968863 -0.4596554406968863 -0.4596554406968863 -0.4864635623187171 -0.4864635623187171 -0.4864635623187171 -0.1577693600601161 
-0.1577693600601161 -0.1577693600601161 -0.1787570035031769 -0.1787570035031769 -0.1787570035031769 -0.3411016119993813 -0.3411016119993813 -0.3411016119993813 -0.3715896402645221 
-0.3715896402645221 -0.3715896402645221 0.01874468824827179 0.01874468824827179 0.01874468824827179 -0.3465333281045189 -0.3465333281045189 -0.3465333281045189 -0.3753427132200198 
-0.3753427132200198 -0.3753427132200198 -0.6617346594230928 -0.6617346594230928 -0.6617346594230928 -0.661376265124337 -0.661376265124337 -0.661376265124337 0.04301083837620854 
0.04301083837620854 0.04301083837620854 0.04749273177877093 0.04749273177877093 0.04749273177877093 -0.3391148129021145 -0.3391148129021145 -0.3391148129021145 -0.3482442128068703 
-0.3482442128068703 -0.3482442128068703 -0.02689415588493806 -0.02689415588493806 -0.02689415588493806 -0.02977309992564899 -0.02977309992564899 -0.02977309992564899 0.3604563801755661 
0.3604563801755661 0.3604563801755661 0.3709702349233993 0.3709702349233993 0.3709702349233993 -0.1418769748674997 -0.1418769748674997 -0.1418769748674997 -0.1821959991912462 
-0.1821959991912462 -0.1821959991912462 -0.266962140157643 -0.266962140157643 -0.266962140157643 -0.3061991252506958 -0.3061991252506958 -0.3061991252506958 0.289008706583747 
0.289008706583747 0.289008706583747 0.2765197181384978 0.2765197181384978 0.2765197181384978 -0.8100530160133192 -0.8100530160133192 -0.8100530160133192 -0.8062730420987869 
-0.8062730420987869 -0.8062730420987869 0.2414901648506262 0.2414901648506262 0.2414901648506262 0.2802485164075656 0.2802485164075656 0.2802485164075656 0.4730777086133566 
0.4730777086133566 0.4730777086133566 0.4473467137828714 0.4473467137828714 0.4473467137828714 -0.3908993733239298 -0.3908993733239298 -0.3908993733239298 -0.3641628473174744 
-0.3641628473174744 -0.3641628473174744 -0.1312334825115168 -0.1312334825115168 -0.1312334825115168 -0.1330322973240994 -0.1330322973240994 -0.1330322973240994 -0.3559932271716069 
-0.3559932271716069 -0.3559932271716069 -0.3738196588665746 -0.3738196588665746 -0.3738196588665746 -0.6353785907608247 -0.6353785907608247 -0.6353785907608247 -0.6609622617507998 
-0.6609622617507998 -0.6609622617507998 0.2846365372054817 0.2846365372054817 0.2846365372054817 0.2653028827043358 0.2653028827043358 0.2653028827043358 -0.4060108924717302 
-0.4060108924717302 -0.4060108924717302 -0.3808866735960246 -0.3808866735960246 -0.3808866735960246 -0.5741365430228086 -0.5741365430228086 -0.5741365430228086 -0.5805820838162709 
-0.5805820838162709 -0.5805820838162709 0.1070381539247317 0.1070381539247317 0.1070381539247317 0.1250610866700748 0.1250610866700748 0.1250610866700748 -0.001826927821854269 
-0.001826927821854269 -0.001826927821854269 -0.007289637802829756 -0.007289637802829756 -0.007289637802829756 -0.003290902815426808 -0.003290902815426808 -0.003290902815426808 -0.00288239992943018 
-0.00288239992943018 -0.00288239992943018 -0.3976736086699099 -0.3976736086699099 -0.3976736086699099 -0.39566642907175 -0.39566642907175 -0.39566642907175 -0.3647557658244785 
-0.3647557658244785 -0.3647557658244785 -0.3964263861220956 -0.3964263861220956 -0.3964263861220956 -0.2169967573530873 -0.2169967573530873 -0.2169967573530873 -0.2062261159636792 
-0.2062261159636792 -0.2062261159636792 0.7538259750495073 0.7538259750495073 0.7538259750495073 0.7525663962304239 0.7525663962304239 0.7525663962304239 -0.07031712206356376 
-0.07031712206356376 -0.07031712206356376 -0.07933087849889869 -0.07933087849889869 -0.07933087849889869 0.3624126174233823 0.3624126174233823 0.3624126174233823 0.3912692271566925 
0.3912692271566925 0.3912692271566925 -0.34621599619938 -0.34621599619938 -0.34621599619938 -0.372517269979336 -0.372517269979336 -0.372517269979336 0.3901235149575398 
0.3901235149575398 0.3901235149575398 0.4213252574407219 0.4213252574407219 0.4213252574407219 0.3255634575740871 0.3255634575740871 0.3255634575740871 0.320809246680077 
0.320809246680077 0.320809246680077 -0.6673030572499427 -0.6673030572499427 -0.6673030572499427 -0.6404205180586063 -0.6404205180586063 -0.6404205180586063 0.2351346760217719 
0.2351346760217719 0.2351346760217719 0.2508001149005069 0.2508001149005069 0.2508001149005069 -0.7749428897374337 -0.7749428897374337 -0.7749428897374337 -0.7542798559109621 
-0.7542798559109621 -0.7542798559109621 0.6877656485955541 0.6877656485955541 0.6877656485955541 0.6644996930422936 0.6644996930422936 0.6644996930422936 -0.4267980856457188 
-0.4267980856457188 -0.4267980856457188 -0.4140048161003125 -0.4140048161003125 -0.4140048161003125 -0.7006385855281163 -0.7006385855281163 -0.7006385855281163 -0.7163050117693232 
-0.7163050117693232 -0.7163050117693232 -0.08621004256074977 -0.08621004256074977 -0.08621004256074977 -0.06356346405391217 -0.06356346405391217 -0.06356346405391217 0.7461651745484621 
0.7461651745484621 0.7461651745484621 0.7240831610468481 0.7240831610468481 0.7240831610468481 0.1768851987664561 0.1768851987664561 0.1768851987664561 0.204332593999785 
0.204332593999785 0.204332593999785 0.6003508113529489 0.6003508113529489 0.6003508113529489 0.6121723055436686 0.6121723055436686 0.6121723055436686 -0.02162613185219488 
-0.02162613185219488 -0.02162613185219488 -0.07022965051280344 -0.07022965051280344 -0.07022965051280344 -0.1591577332332749 -0.1591577332332749 -0.1591577332332749 -0.1311958072328384 
-0.1311958072328384 -0.1311958072328384 -0.5977175686823917 -0.5977175686823917 -0.5977175686823917 -0.6133285618769866 -0.6133285618769866 -0.6133285618769866 -0.6056322474195421 
-0.6056322474195421 -0.6056322474195421 -0.594660381236642 -0.594660381236642 -0.594660381236642 0.5507205140302991 0.5507205140302991 0.5507205140302991 0.5569277205185206 
0.5569277205185206 0.5569277205185206 0.5466649154714818 0.5466649154714818 0.5466649154714818 0.7916307975930656 0.7916307975930656 0.7916307975930656 0.7836504907481379 
0.7836504907481379 0.7836504907481379 0.7876511875130692 0.7876511875130692 0.7876511875130692 0.002804477340493198 0.002804477340493198 0.002804477340493198 0.00418923924706842 
0.00418923924706842 0.00418923924706842 0.01859535656640664 0.01859535656640664 0.01859535656640664 0.1211497812903832 0.1211497812903832 0.1211497812903832 0.1145556648674808 
0.1145556648674808 0.1145556648674808 0.1166566755299701 0.1166566755299701 0.1166566755299701 0.644720786693262 0.644720786693262 0.644720786693262 0.6532075063718038 
0.6532075063718038 0.6532075063718038 0.6395637689643237 0.6395637689643237 0.6395637689643237 -0.1269167804637213 -0.1269167804637213 -0.1269167804637213 -0.09399993430192928 
-0.09399993430192928 -0.09399993430192928 -0.1080670981205882 -0.1080670981205882 -0.1080670981205882 0.2223733804362343 0.2223733804362343 0.2223733804362343 -0.8448578288610851 
-0.8448578288610851 -0.8448578288610851 -0.8446611883582087 -0.8446611883582087 -0.8446611883582087 -0.8445515229857077 -0.8445515229857077 -0.8445515229857077 0.6846505515918273 
0.6846505515918273 0.6846505515918273 0.6817409735658333 0.6817409735658333 0.6817409735658333 0.7126193447956363 0.7126193447956363 0.7126193447956363 -0.8129815888143079 
-0.8129815888143079 -0.8129815888143079 -0.8021568624209119 -0.8021568624209119 -0.8021568624209119 -0.801574370872038 -0.801574370872038 -0.801574370872038 -0.3767729348847866 
-0.3767729348847866 -0.3767729348847866 -0.3532918222673948 -0.3532918222673948 -0.3532918222673948 -0.3803016104170349 -0.3803016104170349 -0.3803016104170349 -0.01518510014578577 
-0.01518510014578577 -0.01518510014578577 -0.02411591193355604 -0.02411591193355604 -0.02411591193355604 -0.02668763233421918 -0.02668763233421918 -0.02668763233421918 0.2615790111956641 
0.2615790111956641 0.2615790111956641 0.2792428987280039 0.2792428987280039 0.2792428987280039 0.319150728546995 0.319150728546995 0.319150728546995 -0.3164938798132694 
-0.3164938798132694 -0.3164938798132694 -0.3134155044461688 -0.3134155044461688 -0.3134155044461688 -0.3174534763183537 -0.3174534763183537 -0.3174534763183537 0.7086384294749164 
0.7086384294749164 0.7086384294749164 0.7071002198435146 0.7071002198435146 0.7071002198435146 0.6800084312329031 0.6800084312329031 0.6800084312329031 -0.8332949351922887 
-0.8332949351922887 -0.8332949351922887 -0.8287373788453595 -0.8287373788453595 -0.8287373788453595 -0.8243383321292208 -0.8243383321292208 -0.8243383321292208 -0.4135301883375399 
-0.4135301883375399 -0.4135301883375399 -0.3867752488066388 -0.3867752488066388 -0.3867752488066388 -0.3659136158536982 -0.3659136158536982 -0.3659136158536982 -0.1501464878997412 
-0.1501464878997412 -0.1501464878997412 -0.1513635793637829 -0.1513635793637829 -0.1513635793637829 -0.1584875480085516 -0.1584875480085516 -0.1584875480085516 0.7743374780797533 
0.7743374780797533 0.7743374780797533 0.7707240293962945 0.7707240293962945 0.7707240293962945 0.7626703427586415 0.7626703427586415 0.7626703427586415 -0.2227958988001187 
-0.2227958988001187 -0.2227958988001187 -0.2178353404359993 -0.2178353404359993 -0.2178353404359993 -0.2284958131441411 -0.2284958131441411 -0.2284958131441411 0.2850917139220662 
0.2850917139220662 0.2850917139220662 0.2720710451589839 0.2720710451589839 0.2720710451589839 0.2483514260405241 0.2483514260405241 0.2483514260405241 -0.4888832082959227 
-0.4888832082959227 -0.4888832082959227 -0.5019057740478124 -0.5019057740478124 -0.5019057740478124 -0.5161021085669986 -0.5161021085669986 -0.5161021085669986 0.3646287853163025 
0.3646287853163025 0.3646287853163025 0.3817924147261167 0.3817924147261167 0.3817924147261167 0.4006876667524126 0.4006876667524126 0.4006876667524126 0.7177686239977282 
0.7177686239977282 0.7177686239977282 0.7103246898994603 0.7103246898994603 0.7103246898994603 0.6971450720070567 0.6971450720070567 0.6971450720070567 0.1242076937926207 
0.1242076937926207 0.1242076937926207 0.1295271202579847 0.1295271202579847 0.1295271202579847 0.1404900108219608 0.1404900108219608 0.1404900108219608 0.2940314560479581 
0.2940314560479581 0.2940314560479581 0.3181659213441281 0.3181659213441281 0.3181659213441281 0.332061211461081 0.332061211461081 0.332061211461081 -0.8230507771564974 
-0.8230507771564974 -0.8230507771564974 -0.8310089974579317 -0.8310089974579317 -0.8310089974579317 -0.8286525460846708 -0.8286525460846708 -0.8286525460846708 0.1112416386568655 