Title = Triangle100
FileType = Solution
Variables = q
Zone T = Triangle100
ZoneType = FETriangle
Nodes = 99072
Elements = 33024
DataPacking = Block
StrandID = 17
SolutionTime = 1.6
-0.6817612788523962 -0.6817612788523962 -0.6817612788523962 -0.6981191870914836 -0.6981191870914836 -0.6981191870914836 -0.6995942456525693 -0.6995942456525693 -0.6995942456525693 -0.1899166012825863 
-0.1899166012825863 -0.1899166012825863 -0.1816100639770844 -0.1816100639770844 -0.1816100639770844 0.4396662971945705 0.4396662971945705 0.4396662971945705 0.4491164510305509 
0.4491164510305509 0.4491164510305509 -0.2402593786449151 -0.2402593786449151 -0.2402593786449151 -0.2515309354304257 -0.2515309354304257 -0.2515309354304257 -0.1968502671805268 
-0.1968502671805268 -0.1968502671805268 -0.1928565055989744 -0.1928565055989744 -0.1928565055989744 0.5215693406317105 0.5215693406317105 0.5215693406317105 0.5094725501803916 
0.5094725501803916 0.5094725501803916 -0.08934519862905108 -0.08934519862905108 -0.08934519862905108 -0.08411317217337805 -0.08411317217337805 -0.08411317217337805 0.112623582251213 
0.112623582251213 0.112623582251213 0.09542908207232925 0.09542908207232925 0.09542908207232925 0.06353328688949533 0.06353328688949533 0.06353328688949533 0.0783964022187659 
0.0783964022187659 0.0783964022187659 0.5915329624324825 0.5915329624324825 0.5915329624324825 0.556114306996596 0.556114306996596 0.556114306996596 0.5831617473186932 
0.5831617473186932 0.5831617473186932 -0.04930687072488092 -0.04930687072488092 -0.04930687072488092 -0.04879401944879627 -0.04879401944879627 -0.04879401944879627 -0.2907827296804768 
-0.2907827296804768 -0.2907827296804768 -0.3174259554802605 -0.3174259554802605 -0.3174259554802605 -0.2447378154873114 -0.2447378154873114 -0.2447378154873114 -0.2696544359199964 
-0.2696544359199964 -0.2696544359199964 0.7119352345059574 0.7119352345059574 0.7119352345059574 0.693172770711836 0.693172770711836 0.693172770711836 -0.3306686082882289 
-0.3306686082882289 -0.3306686082882289 -0.32550015219683 -0.32550015219683 -0.32550015219683 -0.3224186898076996 -0.3224186898076996 -0.3224186898076996 -0.1784556891662979 
-0.1784556891662979 -0.1784556891662979 -0.1709036496162061 -0.1709036496162061 -0.1709036496162061 -0.163395175351293 -0.163395175351293 -0.163395175351293 0.3658227058808344 
0.3658227058808344 0.3658227058808344 0.3759699359543582 0.3759699359543582 0.3759699359543582 0.3392712437643577 0.3392712437643577 0.3392712437643577 0.5474908669548058 
0.5474908669548058 0.5474908669548058 0.5368454424514097 0.5368454424514097 0.5368454424514097 0.5240879094473505 0.5240879094473505 0.5240879094473505 0.1261487387037503 
0.1261487387037503 0.1261487387037503 0.1378026875610441 0.1378026875610441 0.1378026875610441 0.1462669037590548 0.1462669037590548 0.1462669037590548 0.01606047644449185 
0.01606047644449185 0.01606047644449185 0.01806284507929634 0.01806284507929634 0.01806284507929634 0.01809407285661931 0.01809407285661931 0.01809407285661931 0.1879485976935667 
0.1879485976935667 0.1879485976935667 0.1994975019313683 0.1994975019313683 0.1994975019313683 0.2070986833579683 0.2070986833579683 0.2070986833579683 -0.2249909009384233 
-0.2249909009384233 -0.2249909009384233 -0.2095305787212511 -0.2095305787212511 -0.2095305787212511 -0.1560154571202385 -0.1560154571202385 -0.1560154571202385 -0.1539813586787832 
-0.1539813586787832 -0.1539813586787832 -0.545729098009522 -0.545729098009522 -0.545729098009522 -0.5759340081236999 -0.5759340081236999 -0.5759340081236999 -0.604947522402851 
-0.604947522402851 -0.604947522402851 -0.614049187239992 -0.614049187239992 -0.614049187239992 -0.5960909587575611 -0.5960909587575611 -0.5960909587575611 -0.6226649327609509 
-0.6226649327609509 -0.6226649327609509 0.1430606916283873 0.1430606916283873 0.1430606916283873 0.1328380762548113 0.1328380762548113 0.1328380762548113 0.4333139774606578 
0.4333139774606578 0.4333139774606578 0.4310723028906713 0.4310723028906713 0.4310723028906713 -0.4733272377765002 -0.4733272377765002 -0.4733272377765002 -0.4761302284028868 
-0.4761302284028868 -0.4761302284028868 0.6356956072107049 0.6356956072107049 0.6356956072107049 0.6387640956817746 0.6387640956817746 0.6387640956817746 0.2955077401557117 
0.2955077401557117 0.2955077401557117 0.3225223948983874 0.3225223948983874 0.3225223948983874 0.06650554804037986 0.06650554804037986 0.06650554804037986 0.06529216214044203 
0.06529216214044203 0.06529216214044203 0.6865842858276776 0.6865842858276776 0.6865842858276776 0.696766958632797 0.696766958632797 0.696766958632797 -0.7367158012193263 
-0.7367158012193263 -0.7367158012193263 -0.7434987360890977 -0.7434987360890977 -0.7434987360890977 0.1729520183184008 0.1729520183184008 0.1729520183184008 0.1791382317970741 
0.1791382317970741 0.1791382317970741 -0.750378461159695 -0.750378461159695 -0.750378461159695 -0.7468120913389359 -0.7468120913389359 -0.7468120913389359 -0.4171439017084958 
-0.4171439017084958 -0.4171439017084958 -0.430489327664738 -0.430489327664738 -0.430489327664738 0.5724893917199064 0.5724893917199064 0.5724893917199064 0.5636931375598686 
0.5636931375598686 0.5636931375598686 -0.3203430628731749 -0.3203430628731749 -0.3203430628731749 -0.3432832367501206 -0.3432832367501206 -0.3432832367501206 0.2104415985913706 
0.2104415985913706 0.2104415985913706 0.2015113741432666 0.2015113741432666 0.2015113741432666 -0.1947290669020274 -0.1947290669020274 -0.1947290669020274 -0.1778439636253333 
-0.1778439636253333 -0.1778439636253333 0.01953170339531696 0.01953170339531696 0.01953170339531696 -0.1756894730877449 -0.1756894730877449 -0.1756894730877449 -0.1972486820515154 
-0.1972486820515154 -0.1972486820515154 0.08117514651036088 0.08117514651036088 0.08117514651036088 0.1161170847018989 0.1161170847018989 0.1161170847018989 -0.1960261501885981 
-0.1960261501885981 -0.1960261501885981 -0.19745904148504 -0.19745904148504 -0.19745904148504 -0.2400423535448275 -0.2400423535448275 -0.2400423535448275 -0.2900559176554467 
-0.2900559176554467 -0.2900559176554467 -0.06590601425085636 -0.06590601425085636 -0.06590601425085636 -0.07297690998437806 -0.07297690998437806 -0.07297690998437806 0.3093194139766979 
0.3093194139766979 0.3093194139766979 0.3119675949422041 0.3119675949422041 0.3119675949422041 -0.2013520348167912 -0.2013520348167912 -0.2013520348167912 -0.2370149396640262 
-0.2370149396640262 -0.2370149396640262 -0.656720421215589 -0.656720421215589 -0.656720421215589 -0.6752955701371475 -0.6752955701371475 -0.6752955701371475 -0.554159651875394 
-0.554159651875394 -0.554159651875394 -0.5730314395188432 -0.5730314395188432 -0.5730314395188432 0.2208023923341975 0.2208023923341975 0.2208023923341975 0.2490253591324348 
0.2490253591324348 0.2490253591324348 0.7058112462393753 0.7058112462393753 0.7058112462393753 0.7234851975653324 0.7234851975653324 0.7234851975653324 -0.7965793514094293 
-0.7965793514094293 -0.7965793514094293 -0.7980414233307729 -0.7980414233307729 -0.7980414233307729 -0.06844195395671647 -0.06844195395671647 -0.06844195395671647 -0.0687899566625334 
-0.0687899566625334 -0.0687899566625334 -0.2861482897169502 -0.2861482897169502 -0.2861482897169502 -0.2927672300263695 -0.2927672300263695 -0.2927672300263695 -0.8110413132674616 
-0.8110413132674616 -0.8110413132674616 -0.8158688982132812 -0.8158688982132812 -0.8158688982132812 0.2339396919630418 0.2339396919630418 0.2339396919630418 0.2469972895806289 
0.2469972895806289 0.2469972895806289 -0.2440673426539753 -0.2440673426539753 -0.2440673426539753 -0.2359097830851959 -0.2359097830851959 -0.2359097830851959 -0.2259383036506764 
-0.2259383036506764 -0.2259383036506764 -0.004363952809664392 -0.004363952809664392 -0.004363952809664392 -0.02429493317636442 -0.02429493317636442 -0.02429493317636442 -0.03760656269741719 
-0.03760656269741719 -0.03760656269741719 0.2850955471798152 0.2850955471798152 0.2850955471798152 0.2977401180468353 0.2977401180468353 0.2977401180468353 0.307933710786898 
0.307933710786898 0.307933710786898 -0.8043501445565713 -0.8043501445565713 -0.8043501445565713 -0.8027042027542981 -0.8027042027542981 -0.8027042027542981 -0.801960794742104 
-0.801960794742104 -0.801960794742104 0.1558431966546782 0.1558431966546782 0.1558431966546782 0.1492647590631078 0.1492647590631078 0.1492647590631078 0.1557255118142515 
0.1557255118142515 0.1557255118142515 0.5683158919538587 0.5683158919538587 0.5683158919538587 0.5480022282190329 0.5480022282190329 0.5480022282190329 -0.7147214929394936 
-0.7147214929394936 -0.7147214929394936 -0.7193185700155573 -0.7193185700155573 -0.7193185700155573 -0.7348019206273695 -0.7348019206273695 -0.7348019206273695 -0.0781074262578538 
-0.0781074262578538 -0.0781074262578538 -0.07267821793827128 -0.07267821793827128 -0.07267821793827128 -0.07463790926559691 -0.07463790926559691 -0.07463790926559691 0.6149334506435015 
0.6149334506435015 0.6149334506435015 0.6249972822056348 0.6249972822056348 0.6249972822056348 0.6291101202814174 0.6291101202814174 0.6291101202814174 -0.4079198971203565 
-0.4079198971203565 -0.4079198971203565 -0.4218031813201162 -0.4218031813201162 -0.4218031813201162 -0.4052505337448469 -0.4052505337448469 -0.4052505337448469 0.1912023129767903 
0.1912023129767903 0.1912023129767903 0.201501138277529 0.201501138277529 0.201501138277529 0.2142509483168556 0.2142509483168556 0.2142509483168556 -0.5904737631713274 
-0.5904737631713274 -0.5904737631713274 -0.6096041830902821 -0.6096041830902821 -0.6096041830902821 -0.6085671320548489 -0.6085671320548489 -0.6085671320548489 0.1126350327907206 
0.1126350327907206 0.1126350327907206 0.1140960849651975 0.1140960849651975 0.1140960849651975 0.112217114129719 0.112217114129719 0.112217114129719 -0.2184034994875499 
-0.2184034994875499 -0.2184034994875499 -0.2096916094951627 -0.2096916094951627 -0.2096916094951627 -0.1874992665492463 -0.1874992665492463 -0.1874992665492463 -0.1796425048982798 
-0.1796425048982798 -0.1796425048982798 -0.1675609922953657 -0.1675609922953657 -0.1675609922953657 0.6633576694114584 0.6633576694114584 0.6633576694114584 0.6687424609734204 
0.6687424609734204 0.6687424609734204 -0.1574822563999272 -0.1574822563999272 -0.1574822563999272 -0.173351580446648 -0.173351580446648 -0.173351580446648 0.460184647822041 
0.460184647822041 0.460184647822041 0.460441530729699 0.460441530729699 0.460441530729699 -0.06316599692860618 -0.06316599692860618 -0.06316599692860618 -0.05694701728087699 
-0.05694701728087699 -0.05694701728087699 -0.08367174848291743 -0.08367174848291743 -0.08367174848291743 -0.08036218890189524 -0.08036218890189524 -0.08036218890189524 0.3064291194925359 
0.3064291194925359 0.3064291194925359 0.319607263669302 0.319607263669302 0.319607263669302 -0.4666959797354036 -0.4666959797354036 -0.4666959797354036 -0.4674332915844778 
-0.4674332915844778 -0.4674332915844778 -0.1202972856762308 -0.1202972856762308 -0.1202972856762308 -0.1192404230401257 -0.1192404230401257 -0.1192404230401257 -0.5488412407472296 
-0.5488412407472296 -0.5488412407472296 -0.5290552718695012 -0.5290552718695012 -0.5290552718695012 -0.2194478973091226 -0.2194478973091226 -0.2194478973091226 -0.2028750637276545 
-0.2028750637276545 -0.2028750637276545 0.0447771285040858 0.0447771285040858 0.0447771285040858 0.06764732385632133 0.06764732385632133 0.06764732385632133 -0.5091356335417858 
-0.5091356335417858 -0.5091356335417858 -0.5213021409375732 -0.5213021409375732 -0.5213021409375732 0.8015775676879888 0.8015775676879888 0.8015775676879888 0.8061045069113472 
0.8061045069113472 0.8061045069113472 -0.8116688618389716 -0.8116688618389716 -0.8116688618389716 -0.809997966356393 -0.809997966356393 -0.809997966356393 -0.234806008424075 
-0.234806008424075 -0.234806008424075 -0.2376720348585981 -0.2376720348585981 -0.2376720348585981 -0.3582440507025458 -0.3582440507025458 -0.3582440507025458 -0.3504915583655021 
-0.3504915583655021 -0.3504915583655021 -0.3473199635893252 -0.3473199635893252 -0.3473199635893252 -0.34313172415404 -0.34313172415404 -0.34313172415404 0.1851198574922921 
0.1851198574922921 0.1851198574922921 0.1701540833706244 0.1701540833706244 0.1701540833706244 -0.01177908794464778 -0.01177908794464778 -0.01177908794464778 -0.03007035097528279 
-0.03007035097528279 -0.03007035097528279 0.09888406740227582 0.09888406740227582 0.09888406740227582 0.05632469678222442 0.05632469678222442 0.05632469678222442 -0.5599330049750779 
-0.5599330049750779 -0.5599330049750779 -0.5520337956664747 -0.5520337956664747 -0.5520337956664747 -0.4289571805469954 -0.4289571805469954 -0.4289571805469954 -0.4385854985594447 
-0.4385854985594447 -0.4385854985594447 -0.2317861588803654 -0.2317861588803654 -0.2317861588803654 -0.2360186932123615 -0.2360186932123615 -0.2360186932123615 -0.5275246673882077 
-0.5275246673882077 -0.5275246673882077 -0.5341743589078048 -0.5341743589078048 -0.5341743589078048 -0.4027135104373217 -0.4027135104373217 -0.4027135104373217 -0.4123527704504519 
-0.4123527704504519 -0.4123527704504519 0.1259083674769658 0.1259083674769658 0.1259083674769658 0.1484768392035971 0.1484768392035971 0.1484768392035971 -0.3686283443874803 
-0.3686283443874803 -0.3686283443874803 -0.3375796165065216 -0.3375796165065216 -0.3375796165065216 -0.4613824809214919 -0.4613824809214919 -0.4613824809214919 -0.4474049504403289 
-0.4474049504403289 -0.4474049504403289 0.6527289654634265 0.6527289654634265 0.6527289654634265 0.6653257330446432 0.6653257330446432 0.6653257330446432 0.3315342807955857 
0.3315342807955857 0.3315342807955857 0.3371977433259052 0.3371977433259052 0.3371977433259052 0.4018290536781619 0.4018290536781619 0.4018290536781619 0.4254295300109675 
0.4254295300109675 0.4254295300109675 0.07647462873716393 0.07647462873716393 0.07647462873716393 0.06172703887172315 0.06172703887172315 0.06172703887172315 0.2822282521852798 
0.2822282521852798 0.2822282521852798 0.2737058008457565 0.2737058008457565 0.2737058008457565 -0.1951638143128512 -0.1951638143128512 -0.1951638143128512 -0.1969811225790126 
-0.1969811225790126 -0.1969811225790126 0.3366111059720219 0.3366111059720219 0.3366111059720219 0.6861031871398439 0.6861031871398439 0.6861031871398439 0.6955223284715872 
0.6955223284715872 0.6955223284715872 0.3437082269225584 0.3437082269225584 0.3437082269225584 0.3120269332927931 0.3120269332927931 0.3120269332927931 0.3988437823140725 
0.3988437823140725 0.3988437823140725 0.3993242105802873 0.3993242105802873 0.3993242105802873 -0.1516117205424125 -0.1516117205424125 -0.1516117205424125 -0.1576665258109176 
-0.1576665258109176 -0.1576665258109176 0.743159392367272 0.743159392367272 0.743159392367272 0.7326236861719349 0.7326236861719349 0.7326236861719349 0.7322772441653533 
0.7322772441653533 0.7322772441653533 0.7232889744635456 0.7232889744635456 0.7232889744635456 -0.6573175390243762 -0.6573175390243762 -0.6573175390243762 -0.6644568021744157 
-0.6644568021744157 -0.6644568021744157 0.4535177480999505 0.4535177480999505 0.4535177480999505 0.4709837480873705 0.4709837480873705 0.4709837480873705 0.1622700511825391 
0.1622700511825391 0.1622700511825391 0.169807999495671 0.169807999495671 0.169807999495671 0.4035882834988324 0.4035882834988324 0.4035882834988324 0.38517851996428 
0.38517851996428 0.38517851996428 0.5597417194266905 0.5597417194266905 0.5597417194266905 0.0126832613523335 0.0126832613523335 0.0126832613523335 0.02556562231579929 
0.02556562231579929 0.02556562231579929 0.1583260000939165 0.1583260000939165 0.1583260000939165 0.1583261382851746 0.1583261382851746 0.1583261382851746 0.3636110418952493 
0.3636110418952493 0.3636110418952493 0.3792285126204289 0.3792285126204289 0.3792285126204289 -0.2903644180735008 -0.2903644180735008 -0.2903644180735008 -0.2748085065473838 
-0.2748085065473838 -0.2748085065473838 -0.6159424143099136 -0.6159424143099136 -0.6159424143099136 -0.5955807404841358 -0.5955807404841358 -0.5955807404841358 0.1890412537533611 
0.1890412537533611 0.1890412537533611 -0.06615859609961006 -0.06615859609961006 -0.06615859609961006 -0.05340019951395267 -0.05340019951395267 -0.05340019951395267 0.8245609297988827 
0.8245609297988827 0.8245609297988827 0.8242943271722556 0.8242943271722556 0.8242943271722556 0.3745304905597404 0.3745304905597404 0.3745304905597404 0.3616533081067939 
0.3616533081067939 0.3616533081067939 0.02733220598531565 0.02733220598531565 0.02733220598531565 0.03418741203942856 0.03418741203942856 0.03418741203942856 -0.5146986201494167 
-0.5146986201494167 -0.5146986201494167 -0.5457497495856165 -0.5457497495856165 -0.5457497495856165 -0.1960087965934142 -0.1960087965934142 -0.1960087965934142 -0.1902861734956041 
-0.1902861734956041 -0.1902861734956041 0.4070074765751542 0.4070074765751542 0.4070074765751542 0.3912682827088669 0.3912682827088669 0.3912682827088669 -0.484488504336766 
-0.484488504336766 -0.484488504336766 -0.4727605818899077 -0.4727605818899077 -0.4727605818899077 0.04065344664305891 0.04065344664305891 0.04065344664305891 0.04441048559687766 
0.04441048559687766 0.04441048559687766 0.6922880993819067 0.6922880993819067 0.6922880993819067 0.6805156048914784 0.6805156048914784 0.6805156048914784 -0.6731385478067859 
-0.6731385478067859 -0.6731385478067859 -0.6635072671855644 -0.6635072671855644 -0.6635072671855644 0.7084062957939079 0.7084062957939079 0.7084062957939079 0.7155967970672177 
0.7155967970672177 0.7155967970672177 0.3690272176312202 0.3690272176312202 0.3690272176312202 0.3559931958892347 0.3559931958892347 0.3559931958892347 -0.4517175501951988 
-0.4517175501951988 -0.4517175501951988 -0.4687620713509355 -0.4687620713509355 -0.4687620713509355 -0.3968337229676265 -0.3968337229676265 -0.3968337229676265 -0.3399706239323245 
-0.3399706239323245 -0.3399706239323245 -0.1230491980102572 -0.1230491980102572 -0.1230491980102572 -0.1646084146597654 -0.1646084146597654 -0.1646084146597654 -0.1978130545328979 
-0.1978130545328979 -0.1978130545328979 -0.08090290753503088 -0.08090290753503088 -0.08090290753503088 -0.09838215838408484 -0.09838215838408484 -0.09838215838408484 -0.2536421004908658 
-0.2536421004908658 -0.2536421004908658 -0.2485465972501673 -0.2485465972501673 -0.2485465972501673 0.1437017626446352 0.1437017626446352 0.1437017626446352 0.1657342359359489 
0.1657342359359489 0.1657342359359489 0.2148300047115534 0.2148300047115534 0.2148300047115534 0.2140590322444811 0.2140590322444811 0.2140590322444811 0.5379673975179373 
0.5379673975179373 0.5379673975179373 0.5732740006036088 0.5732740006036088 0.5732740006036088 0.408436506156624 0.408436506156624 0.408436506156624 0.4253699092317607 
0.4253699092317607 0.4253699092317607 -0.3326975635156093 -0.3326975635156093 -0.3326975635156093 -0.3651703334284615 -0.3651703334284615 -0.3651703334284615 0.2333261174415492 
0.2333261174415492 0.2333261174415492 0.2237343012922021 0.2237343012922021 0.2237343012922021 -0.3563065421348025 -0.3563065421348025 -0.3563065421348025 -0.322846104806762 
-0.322846104806762 -0.322846104806762 -0.5750915098172364 -0.5750915098172364 -0.5750915098172364 -0.5712561056511445 -0.5712561056511445 -0.5712561056511445 0.5427038912587818 
0.5427038912587818 0.5427038912587818 0.5347738848887155 0.5347738848887155 0.5347738848887155 -0.662419538201148 -0.662419538201148 -0.662419538201148 -0.6361005531106024 
-0.6361005531106024 -0.6361005531106024 0.1716501848497638 0.1716501848497638 0.1716501848497638 0.1588292704032543 0.1588292704032543 0.1588292704032543 -0.7453697023475689 
-0.7453697023475689 -0.7453697023475689 -0.7562300071216366 -0.7562300071216366 -0.7562300071216366 -0.8025659649999173 -0.8025659649999173 -0.8025659649999173 -0.7931137119840166 
-0.7931137119840166 -0.7931137119840166 -0.3299834186913249 -0.3299834186913249 -0.3299834186913249 0.2719608105843085 0.2719608105843085 0.2719608105843085 0.2772611062789186 
0.2772611062789186 0.2772611062789186 0.2169965984829915 0.2169965984829915 0.2169965984829915 0.2185546113850662 0.2185546113850662 0.2185546113850662 0.4730721333625891 
0.4730721333625891 0.4730721333625891 0.4836643018992747 0.4836643018992747 0.4836643018992747 -0.0916707842876537 -0.0916707842876537 -0.0916707842876537 -0.08700248851389983 
-0.08700248851389983 -0.08700248851389983 0.6652712737900461 0.6652712737900461 0.6652712737900461 0.6866278814730498 0.6866278814730498 0.6866278814730498 -0.1036553362906251 
-0.1036553362906251 -0.1036553362906251 -0.1355669225784589 -0.1355669225784589 -0.1355669225784589 -0.7870835620856227 -0.7870835620856227 -0.7870835620856227 -0.8017943732823889 
-0.8017943732823889 -0.8017943732823889 0.06437917118979694 0.06437917118979694 0.06437917118979694 0.03687858396187488 0.03687858396187488 0.03687858396187488 0.605487746853947 
0.605487746853947 0.605487746853947 0.6228287720704788 0.6228287720704788 0.6228287720704788 -0.1543119317549208 -0.1543119317549208 -0.1543119317549208 -0.1287659884612924 
-0.1287659884612924 -0.1287659884612924 -0.372253747590621 -0.372253747590621 -0.372253747590621 -0.365971968872235 -0.365971968872235 -0.365971968872235 0.6134748791299486 
0.6134748791299486 0.6134748791299486 0.6366133665888568 0.6366133665888568 0.6366133665888568 0.09559132767152489 0.09559132767152489 0.09559132767152489 0.07012358257219851 
0.07012358257219851 0.07012358257219851 -0.3154121227500123 -0.3154121227500123 -0.3154121227500123 -0.2935726869077283 -0.2935726869077283 -0.2935726869077283 0.3334615533467185 
0.3334615533467185 0.3334615533467185 0.2939853180650677 0.2939853180650677 0.2939853180650677 -0.1315960486384414 -0.1315960486384414 -0.1315960486384414 -0.1440815082637777 
-0.1440815082637777 -0.1440815082637777 0.5532503606885654 0.5532503606885654 0.5532503606885654 0.5319177231794394 0.5319177231794394 0.5319177231794394 0.3228967413236294 
0.3228967413236294 0.3228967413236294 0.3311631064482924 0.3311631064482924 0.3311631064482924 -0.4099550737374463 -0.4099550737374463 -0.4099550737374463 -0.3803063860379222 
-0.3803063860379222 -0.3803063860379222 -0.3858931761451603 -0.3858931761451603 -0.3858931761451603 -0.4034600375844057 -0.4034600375844057 -0.4034600375844057 -0.1236181870866342 
-0.1236181870866342 -0.1236181870866342 -0.08655104994246882 -0.08655104994246882 -0.08655104994246882 -0.2668938309994562 -0.2668938309994562 -0.2668938309994562 -0.2467010831347827 
-0.2467010831347827 -0.2467010831347827 -0.05737291965543148 -0.05737291965543148 -0.05737291965543148 -0.05188253040536614 -0.05188253040536614 -0.05188253040536614 -0.7704598445705049 
-0.7704598445705049 -0.7704598445705049 -0.7537112246346772 -0.7537112246346772 -0.7537112246346772 -0.667107308245961 -0.667107308245961 -0.667107308245961 -0.6780979913817369 
-0.6780979913817369 -0.6780979913817369 0.2958280320266894 0.2958280320266894 0.2958280320266894 0.335917805415426 0.335917805415426 0.335917805415426 -0.3511514896545714 
-0.3511514896545714 -0.3511514896545714 -0.3286730026102814 -0.3286730026102814 -0.3286730026102814 -0.5275825732368444 -0.5275825732368444 -0.5275825732368444 -0.5003974614505491 
-0.5003974614505491 -0.5003974614505491 -0.7989108962060827 -0.7989108962060827 -0.7989108962060827 -0.7951057263873152 -0.7951057263873152 -0.7951057263873152 0.3717759378780261 
0.3717759378780261 0.3717759378780261 0.3939439968380988 0.3939439968380988 0.3939439968380988 0.8144186012712618 0.8144186012712618 0.8144186012712618 0.8082948558606688 
0.8082948558606688 0.8082948558606688 -0.01079660678487947 -0.01079660678487947 -0.01079660678487947 -0.001986786609661523 -0.001986786609661523 -0.001986786609661523 -0.2791768575941008 
-0.2791768575941008 -0.2791768575941008 -0.2426483868177403 -0.2426483868177403 -0.2426483868177403 -0.102555191305063 -0.102555191305063 -0.102555191305063 -0.09381214569858856 
-0.09381214569858856 -0.09381214569858856 0.04593882703771875 0.04593882703771875 0.04593882703771875 0.03800824784761795 0.03800824784761795 0.03800824784761795 0.1474624291443415 
0.1474624291443415 0.1474624291443415 0.1127587648967378 0.1127587648967378 0.1127587648967378 -0.422569181260246 -0.422569181260246 -0.422569181260246 -0.4287528784513412 
-0.4287528784513412 -0.4287528784513412 -0.2449947158087944 -0.2449947158087944 -0.2449947158087944 -0.2439283764245606 -0.2439283764245606 -0.2439283764245606 0.4246962200456615 
0.4246962200456615 0.4246962200456615 0.4528071101802642 0.4528071101802642 0.4528071101802642 -0.1021974599224271 -0.1021974599224271 -0.1021974599224271 -0.09808210771230416 
-0.09808210771230416 -0.09808210771230416 0.6375697479228037 0.6375697479228037 0.6375697479228037 0.6459684519421067 0.6459684519421067 0.6459684519421067 -0.117223422654581 
-0.117223422654581 -0.117223422654581 -0.1236842801835251 -0.1236842801835251 -0.1236842801835251 0.5032303750133795 0.5032303750133795 0.5032303750133795 0.5250346484100242 
0.5250346484100242 0.5250346484100242 -0.5015509233536192 -0.5015509233536192 -0.5015509233536192 -0.5162901559437627 -0.5162901559437627 -0.5162901559437627 -0.5313645041983039 
-0.5313645041983039 -0.5313645041983039 -0.5450659287194327 -0.5450659287194327 -0.5450659287194327 -0.344811449986792 -0.344811449986792 -0.344811449986792 -0.3274493391905929 
-0.3274493391905929 -0.3274493391905929 -0.3354698269529315 -0.3354698269529315 -0.3354698269529315 0.4604866841039668 0.4604866841039668 0.4604866841039668 0.4770330707577118 
0.4770330707577118 0.4770330707577118 0.4750220386907604 0.4750220386907604 0.4750220386907604 0.3671152005277397 0.3671152005277397 0.3671152005277397 0.3606424091957162 
0.3606424091957162 0.3606424091957162 0.3980865120243606 0.3980865120243606 0.3980865120243606 0.2104724682155422 0.2104724682155422 0.2104724682155422 0.232803898169084 
0.232803898169084 0.232803898169084 0.245531822820701 0.245531822820701 0.245531822820701 -0.2339735644419224 -0.2339735644419224 -0.2339735644419224 -0.2198330261261146 
-0.2198330261261146 -0.2198330261261146 -0.2306805134945863 -0.2306805134945863 -0.2306805134945863 -0.6463422609200171 -0.6463422609200171 -0.6463422609200171 -0.650143334018646 
-0.650143334018646 -0.650143334018646 -0.6783025116272048 -0.6783025116272048 -0.6783025116272048 -0.0983105278750096 -0.0983105278750096 -0.0983105278750096 -0.2557032789434101 
-0.2557032789434101 -0.2557032789434101 -0.2501838408387591 -0.2501838408387591 -0.2501838408387591 -0.237158418445279 -0.237158418445279 -0.237158418445279 0.3361316901688938 
0.3361316901688938 0.3361316901688938 0.3540535769574489 0.3540535769574489 0.3540535769574489 0.3690586874940132 0.3690586874940132 0.3690586874940132 -0.1204045195572144 
-0.1204045195572144 -0.1204045195572144 -0.1049253735946016 -0.1049253735946016 -0.1049253735946016 -0.1180448216657038 -0.1180448216657038 -0.1180448216657038 -0.7551297730742306 
-0.7551297730742306 -0.7551297730742306 -0.7702233447086557 -0.7702233447086557 -0.7702233447086557 -0.7722636767525353 -0.7722636767525353 -0.7722636767525353 0.5560269262753406 
0.5560269262753406 0.5560269262753406 0.5562383187988547 0.5562383187988547 0.5562383187988547 0.5427343999077039 0.5427343999077039 0.5427343999077039 0.6336013406268959 
0.6336013406268959 0.6336013406268959 0.6094005170668845 0.6094005170668845 0.6094005170668845 0.644760263087873 0.644760263087873 0.644760263087873 0.2985660227342285 
0.2985660227342285 0.2985660227342285 0.3189165704573704 0.3189165704573704 0.3189165704573704 0.3314217436835135 0.3314217436835135 0.3314217436835135 0.1028496647283243 
0.1028496647283243 0.1028496647283243 0.1210595190753132 0.1210595190753132 0.1210595190753132 0.09986379253518168 0.09986379253518168 0.09986379253518168 -0.1656531016017117 
-0.1656531016017117 -0.1656531016017117 -0.1503760291875531 -0.1503760291875531 -0.1503760291875531 -0.1354443493720997 -0.1354443493720997 -0.1354443493720997 -0.785011599616369 
-0.785011599616369 -0.785011599616369 -0.7863117331127485 -0.7863117331127485 -0.7863117331127485 -0.7837496476819603 -0.7837496476819603 -0.7837496476819603 0.09647465273590142 
0.09647465273590142 0.09647465273590142 0.1045231928035216 0.1045231928035216 0.1045231928035216 0.107832400696256 0.107832400696256 0.107832400696256 -0.0004242917822741083 
-0.0004242917822741083 -0.0004242917822741083 0.006205686173526348 0.006205686173526348 0.006205686173526348 -0.004192904720601918 -0.004192904720601918 -0.004192904720601918 0.07040493997853139 
0.07040493997853139 0.07040493997853139 0.05733965456012714 0.05733965456012714 0.05733965456012714 0.03781846987417309 0.03781846987417309 0.03781846987417309 -0.08347246860337022 
-0.08347246860337022 -0.08347246860337022 -0.09448737029771416 -0.09448737029771416 -0.09448737029771416 -0.1147761710819915 -0.1147761710819915 -0.1147761710819915 0.2726135525900723 
0.2726135525900723 0.2726135525900723 0.2731445585497779 0.2731445585497779 0.2731445585497779 0.2675393631581394 0.2675393631581394 0.2675393631581394 -0.3707803244499817 
-0.3707803244499817 -0.3707803244499817 -0.3646462590319854 -0.3646462590319854 -0.3646462590319854 -0.3609237557325289 -0.3609237557325289 -0.3609237557325289 0.5316703076237737 
0.5316703076237737 0.5316703076237737 0.541586085441665 0.541586085441665 0.541586085441665 0.5588853853382225 0.5588853853382225 0.5588853853382225 0.5029602425642954 
0.5029602425642954 0.5029602425642954 0.4889284161462503 0.4889284161462503 0.4889284161462503 0.4920673667547726 0.4920673667547726 0.4920673667547726 -0.253685536914773 
-0.253685536914773 -0.253685536914773 -0.2384339462173486 -0.2384339462173486 -0.2384339462173486 -0.2384871573704701 -0.2384871573704701 -0.2384871573704701 -0.1249708366253049 
-0.1249708366253049 -0.1249708366253049 -0.1412180816797495 -0.1412180816797495 -0.1412180816797495 -0.1251934896763311 -0.1251934896763311 -0.1251934896763311 -0.3338736090236641 
-0.3338736090236641 -0.3338736090236641 -0.375485994517312 -0.375485994517312 -0.375485994517312 -0.3780348318735834 -0.3780348318735834 -0.3780348318735834 -0.09488501583977339 