Title = Triangle100
FileType = Solution
Variables = q
Zone T = Triangle100
ZoneType = FETriangle
Nodes = 99072
Elements = 33024
DataPacking = Block
StrandID = 16
SolutionTime = 1.5
-0.4790385546652152 -0.4790385546652152 -0.4790385546652152 -0.4995963693232379 -0.4995963693232379 -0.4995963693232379 -0.5083272636207027 -0.5083272636207027 -0.5083272636207027 -0.5913297127067968 
-0.5913297127067968 -0.5913297127067968 -0.5912833750675903 -0.5912833750675903 -0.5912833750675903 0.6985932966465178 0.6985932966465178 0.6985932966465178 0.6979683308841358 
0.6979683308841358 0.6979683308841358 0.06558253515718868 0.06558253515718868 0.06558253515718868 0.06040857694131505 0.06040857694131505 0.06040857694131505 -0.1764060434871047 
-0.1764060434871047 -0.1764060434871047 -0.1810573511662709 -0.1810573511662709 -0.1810573511662709 0.06074151739304261 0.06074151739304261 0.06074151739304261 0.04529368004322343 
0.04529368004322343 0.04529368004322343 -0.3417148157917752 -0.3417148157917752 -0.3417148157917752 -0.3302738735436714 -0.3302738735436714 -0.3302738735436714 0.4976749089260291 
0.4976749089260291 0.4976749089260291 0.4820900733771312 0.4820900733771312 0.4820900733771312 -0.4064350916785316 -0.4064350916785316 -0.4064350916785316 -0.3901769208910264 
-0.3901769208910264 -0.3901769208910264 0.6765443915468332 0.6765443915468332 0.6765443915468332 0.6753758967031729 0.6753758967031729 0.6753758967031729 0.706210234164002 
0.706210234164002 0.706210234164002 -0.2088693018834571 -0.2088693018834571 -0.2088693018834571 -0.2248459897000053 -0.2248459897000053 -0.2248459897000053 0.01027614081584548 
0.01027614081584548 0.01027614081584548 -0.006781865097142348 -0.006781865097142348 -0.006781865097142348 0.09101202462270885 0.09101202462270885 0.09101202462270885 0.08729149252644156 
0.08729149252644156 0.08729149252644156 0.3771029984630095 0.3771029984630095 0.3771029984630095 0.3570633649723019 0.3570633649723019 0.3570633649723019 -0.2815627737791183 
-0.2815627737791183 -0.2815627737791183 -0.2901402976158474 -0.2901402976158474 -0.2901402976158474 -0.2955145422550646 -0.2955145422550646 -0.2955145422550646 -0.2865400742568623 
-0.2865400742568623 -0.2865400742568623 -0.2945939016449012 -0.2945939016449012 -0.2945939016449012 -0.2955858774067463 -0.2955858774067463 -0.2955858774067463 0.5469194245209968 
0.5469194245209968 0.5469194245209968 0.5468075084299275 0.5468075084299275 0.5468075084299275 0.5409434477453331 0.5409434477453331 0.5409434477453331 0.09380238012375378 
0.09380238012375378 0.09380238012375378 0.07946064822879056 0.07946064822879056 0.07946064822879056 0.06328948258562268 0.06328948258562268 0.06328948258562268 0.5453703580237039 
0.5453703580237039 0.5453703580237039 0.5573439833044063 0.5573439833044063 0.5573439833044063 0.5695991898384399 0.5695991898384399 0.5695991898384399 0.1735752045848408 
0.1735752045848408 0.1735752045848408 0.1634730127894785 0.1634730127894785 0.1634730127894785 0.1551955338373152 0.1551955338373152 0.1551955338373152 -0.04984303863425741 
-0.04984303863425741 -0.04984303863425741 -0.04657487384035232 -0.04657487384035232 -0.04657487384035232 -0.05911435046599756 -0.05911435046599756 -0.05911435046599756 -0.06636784254012425 
-0.06636784254012425 -0.06636784254012425 -0.05905352171407248 -0.05905352171407248 -0.05905352171407248 0.2252940275992975 0.2252940275992975 0.2252940275992975 0.2168854778101652 
0.2168854778101652 0.2168854778101652 -0.2145817089936864 -0.2145817089936864 -0.2145817089936864 -0.2445150511329053 -0.2445150511329053 -0.2445150511329053 -0.7970225930410244 
-0.7970225930410244 -0.7970225930410244 -0.7909947649214486 -0.7909947649214486 -0.7909947649214486 -0.2278596897619849 -0.2278596897619849 -0.2278596897619849 -0.2498460617688242 
-0.2498460617688242 -0.2498460617688242 0.4362035027983883 0.4362035027983883 0.4362035027983883 0.4147400671989505 0.4147400671989505 0.4147400671989505 0.333517158887567 
0.333517158887567 0.333517158887567 0.3209269886482314 0.3209269886482314 0.3209269886482314 -0.1673112609493799 -0.1673112609493799 -0.1673112609493799 -0.1642811674022473 
-0.1642811674022473 -0.1642811674022473 0.4065319033547005 0.4065319033547005 0.4065319033547005 0.4152254596997661 0.4152254596997661 0.4152254596997661 0.6764995561486669 
0.6764995561486669 0.6764995561486669 0.6943125647337791 0.6943125647337791 0.6943125647337791 -0.04827540359682784 -0.04827540359682784 -0.04827540359682784 -0.03959579504155049 
-0.03959579504155049 -0.03959579504155049 0.422314287306713 0.422314287306713 0.422314287306713 0.4459236419226143 0.4459236419226143 0.4459236419226143 -0.7564340332723104 
-0.7564340332723104 -0.7564340332723104 -0.7497594798651144 -0.7497594798651144 -0.7497594798651144 0.2118949397974854 0.2118949397974854 0.2118949397974854 0.2080017980754953 
0.2080017980754953 0.2080017980754953 -0.6737303730418241 -0.6737303730418241 -0.6737303730418241 -0.6823634290238504 -0.6823634290238504 -0.6823634290238504 -0.7705519161294145 
-0.7705519161294145 -0.7705519161294145 -0.7772583270407816 -0.7772583270407816 -0.7772583270407816 0.6709877964828073 0.6709877964828073 0.6709877964828073 0.6736079675519792 
0.6736079675519792 0.6736079675519792 -0.02384603843450614 -0.02384603843450614 -0.02384603843450614 -0.02948373019237609 -0.02948373019237609 -0.02948373019237609 0.5414651178938185 
0.5414651178938185 0.5414651178938185 0.5317864685521048 0.5317864685521048 0.5317864685521048 -0.6055584900644688 -0.6055584900644688 -0.6055584900644688 -0.59684132580409 
-0.59684132580409 -0.59684132580409 -0.2836425041441996 -0.2836425041441996 -0.2836425041441996 -0.1008908535203508 -0.1008908535203508 -0.1008908535203508 -0.1462674813962152 
-0.1462674813962152 -0.1462674813962152 -0.3944211820120052 -0.3944211820120052 -0.3944211820120052 -0.3555159167929334 -0.3555159167929334 -0.3555159167929334 -0.5811024343708844 
-0.5811024343708844 -0.5811024343708844 -0.5704927354443761 -0.5704927354443761 -0.5704927354443761 -0.07164315693411454 -0.07164315693411454 -0.07164315693411454 -0.1336616141065324 
-0.1336616141065324 -0.1336616141065324 -0.2751133736785599 -0.2751133736785599 -0.2751133736785599 -0.2998568484049878 -0.2998568484049878 -0.2998568484049878 0.5209442451602363 
0.5209442451602363 0.5209442451602363 0.5447238806484171 0.5447238806484171 0.5447238806484171 -0.04737936068982791 -0.04737936068982791 -0.04737936068982791 -0.09430852605263312 
-0.09430852605263312 -0.09430852605263312 -0.4203309407967905 -0.4203309407967905 -0.4203309407967905 -0.4519902019399629 -0.4519902019399629 -0.4519902019399629 -0.4518459743129635 
-0.4518459743129635 -0.4518459743129635 -0.4754539454540812 -0.4754539454540812 -0.4754539454540812 0.6364401038144536 0.6364401038144536 0.6364401038144536 0.6583370138325173 
0.6583370138325173 0.6583370138325173 0.3548933287241863 0.3548933287241863 0.3548933287241863 0.3733038310539774 0.3733038310539774 0.3733038310539774 -0.7169724574186762 
-0.7169724574186762 -0.7169724574186762 -0.7383265236170238 -0.7383265236170238 -0.7383265236170238 -0.05085632141709194 -0.05085632141709194 -0.05085632141709194 -0.03274189189091641 
-0.03274189189091641 -0.03274189189091641 0.04102152532785971 0.04102152532785971 0.04102152532785971 0.04648753757465034 0.04648753757465034 0.04648753757465034 -0.7086636108526421 
-0.7086636108526421 -0.7086636108526421 -0.7130769797780512 -0.7130769797780512 -0.7130769797780512 -0.05917921256586302 -0.05917921256586302 -0.05917921256586302 -0.03891926062794364 
-0.03891926062794364 -0.03891926062794364 -0.05336248348600475 -0.05336248348600475 -0.05336248348600475 -0.05119782579745623 -0.05119782579745623 -0.05119782579745623 -0.04892895442465797 
-0.04892895442465797 -0.04892895442465797 0.09980187168313831 0.09980187168313831 0.09980187168313831 0.09580816358108782 0.09580816358108782 0.09580816358108782 0.06934541160593477 
0.06934541160593477 0.06934541160593477 0.4231968332713641 0.4231968332713641 0.4231968332713641 0.4269871120524882 0.4269871120524882 0.4269871120524882 0.4252230314599268 
0.4252230314599268 0.4252230314599268 -0.6770711220091178 -0.6770711220091178 -0.6770711220091178 -0.6856394938617523 -0.6856394938617523 -0.6856394938617523 -0.6962629769858887 
-0.6962629769858887 -0.6962629769858887 -0.05559240897837704 -0.05559240897837704 -0.05559240897837704 -0.06229687831188767 -0.06229687831188767 -0.06229687831188767 -0.05725459234521713 
-0.05725459234521713 -0.05725459234521713 0.1231022512983699 0.1231022512983699 0.1231022512983699 0.09822984607501835 0.09822984607501835 0.09822984607501835 -0.5365673074706376 
-0.5365673074706376 -0.5365673074706376 -0.5497325595217124 -0.5497325595217124 -0.5497325595217124 -0.5652895128232427 -0.5652895128232427 -0.5652895128232427 -0.3017452629566728 
-0.3017452629566728 -0.3017452629566728 -0.2867589190697938 -0.2867589190697938 -0.2867589190697938 -0.29248344251991 -0.29248344251991 -0.29248344251991 0.6129127514247479 
0.6129127514247479 0.6129127514247479 0.6156780696333097 0.6156780696333097 0.6156780696333097 0.6110171957319492 0.6110171957319492 0.6110171957319492 -0.7674175990298604 
-0.7674175990298604 -0.7674175990298604 -0.7739351582697738 -0.7739351582697738 -0.7739351582697738 -0.7654733107462898 -0.7654733107462898 -0.7654733107462898 0.6151781373257578 
0.6151781373257578 0.6151781373257578 0.6241721997154503 0.6241721997154503 0.6241721997154503 0.6363325945376397 0.6363325945376397 0.6363325945376397 -0.4608001851263971 
-0.4608001851263971 -0.4608001851263971 -0.4852929436994873 -0.4852929436994873 -0.4852929436994873 -0.4932374105053676 -0.4932374105053676 -0.4932374105053676 0.01889071134134892 
0.01889071134134892 0.01889071134134892 0.03037966554735541 0.03037966554735541 0.03037966554735541 0.03707656557953456 0.03707656557953456 0.03707656557953456 -0.04746578141421563 
-0.04746578141421563 -0.04746578141421563 -0.04610143113353336 -0.04610143113353336 -0.04610143113353336 0.1779494043943574 0.1779494043943574 0.1779494043943574 0.1784647772515536 
0.1784647772515536 0.1784647772515536 0.1846979049781154 0.1846979049781154 0.1846979049781154 0.4271723865526903 0.4271723865526903 0.4271723865526903 0.4228365900565484 
0.4228365900565484 0.4228365900565484 -0.02031481424933261 -0.02031481424933261 -0.02031481424933261 -0.02536474854368756 -0.02536474854368756 -0.02536474854368756 0.7511655978552083 
0.7511655978552083 0.7511655978552083 0.7412184049953578 0.7412184049953578 0.7412184049953578 -0.2553107738902624 -0.2553107738902624 -0.2553107738902624 -0.2289056854336865 
-0.2289056854336865 -0.2289056854336865 -0.2288471049635482 -0.2288471049635482 -0.2288471049635482 -0.2445109985080824 -0.2445109985080824 -0.2445109985080824 0.5994198610774226 
0.5994198610774226 0.5994198610774226 0.6074881925157019 0.6074881925157019 0.6074881925157019 -0.3303278609794604 -0.3303278609794604 -0.3303278609794604 -0.3203176213550253 
-0.3203176213550253 -0.3203176213550253 -0.02211199317076788 -0.02211199317076788 -0.02211199317076788 -0.02787084973955133 -0.02787084973955133 -0.02787084973955133 -0.1008925565081341 
-0.1008925565081341 -0.1008925565081341 -0.0752263322550342 -0.0752263322550342 -0.0752263322550342 -0.6373053067085288 -0.6373053067085288 -0.6373053067085288 -0.6295134132915027 
-0.6295134132915027 -0.6295134132915027 0.4659615600931935 0.4659615600931935 0.4659615600931935 0.4965366852851878 0.4965366852851878 0.4965366852851878 -0.2019799536870074 
-0.2019799536870074 -0.2019799536870074 -0.2117088391642462 -0.2117088391642462 -0.2117088391642462 0.7236438554819924 0.7236438554819924 0.7236438554819924 0.7159129219372482 
0.7159129219372482 0.7159129219372482 -0.713328351103329 -0.713328351103329 -0.713328351103329 -0.6923306702103644 -0.6923306702103644 -0.6923306702103644 -0.05625192154602485 
-0.05625192154602485 -0.05625192154602485 -0.06422315041318449 -0.06422315041318449 -0.06422315041318449 -0.576062289950686 -0.576062289950686 -0.576062289950686 -0.5731485674762465 
-0.5731485674762465 -0.5731485674762465 -0.5895670612631119 -0.5895670612631119 -0.5895670612631119 -0.5776517148852713 -0.5776517148852713 -0.5776517148852713 0.4903889535522568 
0.4903889535522568 0.4903889535522568 0.4681081740093794 0.4681081740093794 0.4681081740093794 -0.03045610454079436 -0.03045610454079436 -0.03045610454079436 -0.04070751279496515 
-0.04070751279496515 -0.04070751279496515 0.54824032218534 0.54824032218534 0.54824032218534 0.5145722212561692 0.5145722212561692 0.5145722212561692 -0.2650155937121247 
-0.2650155937121247 -0.2650155937121247 -0.2554748295045032 -0.2554748295045032 -0.2554748295045032 -0.2126754230273276 -0.2126754230273276 -0.2126754230273276 -0.2049308858588092 
-0.2049308858588092 -0.2049308858588092 -0.02066573077709056 -0.02066573077709056 -0.02066573077709056 -0.02672482388612222 -0.02672482388612222 -0.02672482388612222 -0.1655793102960404 
-0.1655793102960404 -0.1655793102960404 -0.1806631676408544 -0.1806631676408544 -0.1806631676408544 -0.6564494498808888 -0.6564494498808888 -0.6564494498808888 -0.6748498550708885 
-0.6748498550708885 -0.6748498550708885 0.4359647265289773 0.4359647265289773 0.4359647265289773 0.4589424139309074 0.4589424139309074 0.4589424139309074 0.0750205306756638 
0.0750205306756638 0.0750205306756638 0.1106601998421261 0.1106601998421261 0.1106601998421261 -0.792063486272643 -0.792063486272643 -0.792063486272643 -0.7858149922603249 
-0.7858149922603249 -0.7858149922603249 0.5508270437815083 0.5508270437815083 0.5508270437815083 0.5551252996436717 0.5551252996436717 0.5551252996436717 0.543178017182282 
0.543178017182282 0.543178017182282 0.5604424089559131 0.5604424089559131 0.5604424089559131 0.2226704395663738 0.2226704395663738 0.2226704395663738 0.2378499870306049 
0.2378499870306049 0.2378499870306049 0.04478394949486956 0.04478394949486956 0.04478394949486956 0.03025715090793335 0.03025715090793335 0.03025715090793335 0.5302362842085488 
0.5302362842085488 0.5302362842085488 0.5250247949471741 0.5250247949471741 0.5250247949471741 -0.02830081809484001 -0.02830081809484001 -0.02830081809484001 -0.03496586951836447 
-0.03496586951836447 -0.03496586951836447 0.5475722220547363 0.5475722220547363 0.5475722220547363 0.8062497340488771 0.8062497340488771 0.8062497340488771 0.8035885486048315 
0.8035885486048315 0.8035885486048315 0.188651537403572 0.188651537403572 0.188651537403572 0.1629218476339785 0.1629218476339785 0.1629218476339785 0.2847638560545918 
0.2847638560545918 0.2847638560545918 0.2781224919382879 0.2781224919382879 0.2781224919382879 0.2266382037595492 0.2266382037595492 0.2266382037595492 0.2328766785590969 
0.2328766785590969 0.2328766785590969 0.3830820851336856 0.3830820851336856 0.3830820851336856 0.3650999585933057 0.3650999585933057 0.3650999585933057 0.3719301135170693 
0.3719301135170693 0.3719301135170693 0.3535625430170793 0.3535625430170793 0.3535625430170793 -0.2737111306614617 -0.2737111306614617 -0.2737111306614617 -0.2883163542641012 
-0.2883163542641012 -0.2883163542641012 0.2063083458757305 0.2063083458757305 0.2063083458757305 0.2183731283242208 0.2183731283242208 0.2183731283242208 0.4687491255748431 
0.4687491255748431 0.4687491255748431 0.4783298326957475 0.4783298326957475 0.4783298326957475 0.154358894620294 0.154358894620294 0.154358894620294 0.1378781810951516 
0.1378781810951516 0.1378781810951516 0.1152874315943328 0.1152874315943328 0.1152874315943328 0.1251542173123261 0.1251542173123261 0.1251542173123261 0.1138291690847468 
0.1138291690847468 0.1138291690847468 -0.08621508822697985 -0.08621508822697985 -0.08621508822697985 -0.09906734056413194 -0.09906734056413194 -0.09906734056413194 0.7185479941315285 
0.7185479941315285 0.7185479941315285 0.7251095155379038 0.7251095155379038 0.7251095155379038 -0.02950659257477247 -0.02950659257477247 -0.02950659257477247 -0.0291156990991784 
-0.0291156990991784 -0.0291156990991784 -0.314844353995767 -0.314844353995767 -0.314844353995767 -0.2969836817019197 -0.2969836817019197 -0.2969836817019197 -0.07144838894023134 
-0.07144838894023134 -0.07144838894023134 -0.0002352783300652185 -0.0002352783300652185 -0.0002352783300652185 0.01096625857067188 0.01096625857067188 0.01096625857067188 0.6644418386382061 
0.6644418386382061 0.6644418386382061 0.6507921400844919 0.6507921400844919 0.6507921400844919 0.1416307989526857 0.1416307989526857 0.1416307989526857 0.1277872816992759 
0.1277872816992759 0.1277872816992759 -0.09347199674055502 -0.09347199674055502 -0.09347199674055502 -0.09252577128114149 -0.09252577128114149 -0.09252577128114149 -0.4187941237646199 
-0.4187941237646199 -0.4187941237646199 -0.4364144093626482 -0.4364144093626482 -0.4364144093626482 -0.2121044688535283 -0.2121044688535283 -0.2121044688535283 -0.2163198748145891 
-0.2163198748145891 -0.2163198748145891 0.7650237000094655 0.7650237000094655 0.7650237000094655 0.757474371264766 0.757474371264766 0.757474371264766 -0.7233011611702216 
-0.7233011611702216 -0.7233011611702216 -0.7214889391294357 -0.7214889391294357 -0.7214889391294357 0.1782394026294171 0.1782394026294171 0.1782394026294171 0.1731565340955273 
0.1731565340955273 0.1731565340955273 0.7752968638185089 0.7752968638185089 0.7752968638185089 0.7776171510442281 0.7776171510442281 0.7776171510442281 -0.8020244673566861 
-0.8020244673566861 -0.8020244673566861 -0.8039056797391045 -0.8039056797391045 -0.8039056797391045 0.3936382018604602 0.3936382018604602 0.3936382018604602 0.4065315723173831 
0.4065315723173831 0.4065315723173831 0.7441511246412953 0.7441511246412953 0.7441511246412953 0.7360369663787658 0.7360369663787658 0.7360369663787658 -0.7877956608875263 
-0.7877956608875263 -0.7877956608875263 -0.7947888192024237 -0.7947888192024237 -0.7947888192024237 0.06865172314526537 0.06865172314526537 0.06865172314526537 0.05575172242277 
0.05575172242277 0.05575172242277 -0.4875221591399351 -0.4875221591399351 -0.4875221591399351 -0.4054113456032907 -0.4054113456032907 -0.4054113456032907 -0.4375629611821066 
-0.4375629611821066 -0.4375629611821066 -0.01574781890479065 -0.01574781890479065 -0.01574781890479065 -0.008176189597895893 -0.008176189597895893 -0.008176189597895893 -0.1070493548932884 
-0.1070493548932884 -0.1070493548932884 -0.1155263614262203 -0.1155263614262203 -0.1155263614262203 -0.3221730004418459 -0.3221730004418459 -0.3221730004418459 -0.2927380743347014 
-0.2927380743347014 -0.2927380743347014 0.5212809235412461 0.5212809235412461 0.5212809235412461 0.5320560432597685 0.5320560432597685 0.5320560432597685 0.1206254255373927 
0.1206254255373927 0.1206254255373927 0.1609168703455147 0.1609168703455147 0.1609168703455147 0.1498920443828942 0.1498920443828942 0.1498920443828942 0.1600646471142934 
0.1600646471142934 0.1600646471142934 0.02073852488063411 0.02073852488063411 0.02073852488063411 0.0003718791861225617 0.0003718791861225617 0.0003718791861225617 0.2525660978832276 
0.2525660978832276 0.2525660978832276 0.2184233479481344 0.2184233479481344 0.2184233479481344 -0.6209540123776014 -0.6209540123776014 -0.6209540123776014 -0.5848882295036792 
-0.5848882295036792 -0.5848882295036792 -0.2001120976693307 -0.2001120976693307 -0.2001120976693307 -0.2094475140350276 -0.2094475140350276 -0.2094475140350276 0.8189933754820681 
0.8189933754820681 0.8189933754820681 0.8181369441145195 0.8181369441145195 0.8181369441145195 -0.6997793287438354 -0.6997793287438354 -0.6997793287438354 -0.69045302286149 
-0.69045302286149 -0.69045302286149 -0.03967261784866766 -0.03967261784866766 -0.03967261784866766 -0.06567910603063901 -0.06567910603063901 -0.06567910603063901 -0.5033696107846726 
-0.5033696107846726 -0.5033696107846726 -0.5304577616038916 -0.5304577616038916 -0.5304577616038916 -0.727418124690396 -0.727418124690396 -0.727418124690396 -0.7437956163388876 
-0.7437956163388876 -0.7437956163388876 -0.3135742279590777 -0.3135742279590777 -0.3135742279590777 -0.1580919837490626 -0.1580919837490626 -0.1580919837490626 -0.1650456757578402 
-0.1650456757578402 -0.1650456757578402 -0.2382196657019567 -0.2382196657019567 -0.2382196657019567 -0.2459431185142396 -0.2459431185142396 -0.2459431185142396 0.2408242357746912 
0.2408242357746912 0.2408242357746912 0.244656803963785 0.244656803963785 0.244656803963785 -0.09110569500213353 -0.09110569500213353 -0.09110569500213353 -0.09267221332228781 
-0.09267221332228781 -0.09267221332228781 0.2939238905128589 0.2939238905128589 0.2939238905128589 0.3143972677077371 0.3143972677077371 0.3143972677077371 -0.000661195547656618 
-0.000661195547656618 -0.000661195547656618 -0.008372358679255768 -0.008372358679255768 -0.008372358679255768 -0.5927569095975961 -0.5927569095975961 -0.5927569095975961 -0.6223518942920271 
-0.6223518942920271 -0.6223518942920271 -0.2535454420655823 -0.2535454420655823 -0.2535454420655823 -0.2883902849462327 -0.2883902849462327 -0.2883902849462327 0.5628315543139526 
0.5628315543139526 0.5628315543139526 0.5589459964312453 0.5589459964312453 0.5589459964312453 -0.5390511368224055 -0.5390511368224055 -0.5390511368224055 -0.5159966657059902 
-0.5159966657059902 -0.5159966657059902 0.04452643991591754 0.04452643991591754 0.04452643991591754 0.0640323814525197 0.0640323814525197 0.0640323814525197 0.7209543482417848 
0.7209543482417848 0.7209543482417848 0.7201409658816906 0.7201409658816906 0.7201409658816906 -0.02389627711078596 -0.02389627711078596 -0.02389627711078596 -0.01784613246294213 
-0.01784613246294213 -0.01784613246294213 -0.340452023617218 -0.340452023617218 -0.340452023617218 -0.3349393743740228 -0.3349393743740228 -0.3349393743740228 -0.1161777008147288 
-0.1161777008147288 -0.1161777008147288 -0.152175979207841 -0.152175979207841 -0.152175979207841 -0.4050718325708039 -0.4050718325708039 -0.4050718325708039 -0.4298241945881666 
-0.4298241945881666 -0.4298241945881666 0.5393332060615903 0.5393332060615903 0.5393332060615903 0.5160691504725892 0.5160691504725892 0.5160691504725892 -0.1405961922272607 
-0.1405961922272607 -0.1405961922272607 -0.1259598908549296 -0.1259598908549296 -0.1259598908549296 -0.6401318708997753 -0.6401318708997753 -0.6401318708997753 -0.6212919924516903 
-0.6212919924516903 -0.6212919924516903 -0.02227587387287188 -0.02227587387287188 -0.02227587387287188 -0.02683031929433497 -0.02683031929433497 -0.02683031929433497 0.05854162934210341 
0.05854162934210341 0.05854162934210341 0.08089982711602611 0.08089982711602611 0.08089982711602611 -0.223382608894495 -0.223382608894495 -0.223382608894495 -0.2194299015750648 
-0.2194299015750648 -0.2194299015750648 -0.1308987565621927 -0.1308987565621927 -0.1308987565621927 -0.1315117856732594 -0.1315117856732594 -0.1315117856732594 -0.7339735148770431 
-0.7339735148770431 -0.7339735148770431 -0.7464802472541632 -0.7464802472541632 -0.7464802472541632 -0.5204391862602809 -0.5204391862602809 -0.5204391862602809 -0.5141928420284065 
-0.5141928420284065 -0.5141928420284065 0.6850817672860343 0.6850817672860343 0.6850817672860343 0.7088417549453353 0.7088417549453353 0.7088417549453353 -0.1034229294090432 
-0.1034229294090432 -0.1034229294090432 -0.09063819418148905 -0.09063819418148905 -0.09063819418148905 -0.1261165830355118 -0.1261165830355118 -0.1261165830355118 -0.09599152113092438 
-0.09599152113092438 -0.09599152113092438 -0.7060689978680013 -0.7060689978680013 -0.7060689978680013 -0.7248252474797592 -0.7248252474797592 -0.7248252474797592 0.5355105939240312 
0.5355105939240312 0.5355105939240312 0.5635283120400889 0.5635283120400889 0.5635283120400889 0.7030442540614522 0.7030442540614522 0.7030442540614522 0.692906761718005 
0.692906761718005 0.692906761718005 -0.2997490005559422 -0.2997490005559422 -0.2997490005559422 -0.2700703041506609 -0.2700703041506609 -0.2700703041506609 0.1072327849741817 
0.1072327849741817 0.1072327849741817 0.1381002973465193 0.1381002973465193 0.1381002973465193 -0.4644110856579911 -0.4644110856579911 -0.4644110856579911 -0.4381355563138941 
-0.4381355563138941 -0.4381355563138941 0.4995211278066577 0.4995211278066577 0.4995211278066577 0.4868986135220983 0.4868986135220983 0.4868986135220983 -0.02562866198555309 
-0.02562866198555309 -0.02562866198555309 -0.03185771155033927 -0.03185771155033927 -0.03185771155033927 -0.7366704717252075 -0.7366704717252075 -0.7366704717252075 -0.7472076459837591 
-0.7472076459837591 -0.7472076459837591 -0.02638194578809066 -0.02638194578809066 -0.02638194578809066 -0.01406996190951608 -0.01406996190951608 -0.01406996190951608 0.7573786572790505 
0.7573786572790505 0.7573786572790505 0.7637342574387721 0.7637342574387721 0.7637342574387721 -0.04426418998096703 -0.04426418998096703 -0.04426418998096703 -0.01890071446902417 
-0.01890071446902417 -0.01890071446902417 0.7994995716821693 0.7994995716821693 0.7994995716821693 0.8104861237227561 0.8104861237227561 0.8104861237227561 -0.1974576675905461 
-0.1974576675905461 -0.1974576675905461 -0.2320150638043192 -0.2320150638043192 -0.2320150638043192 0.08992396536146059 0.08992396536146059 0.08992396536146059 0.1191582717813673 
0.1191582717813673 0.1191582717813673 -0.7258070234930868 -0.7258070234930868 -0.7258070234930868 -0.7421036730780637 -0.7421036730780637 -0.7421036730780637 -0.7455324007336794 
-0.7455324007336794 -0.7455324007336794 -0.7462382772838352 -0.7462382772838352 -0.7462382772838352 0.08917555564549037 0.08917555564549037 0.08917555564549037 0.09124638334705221 
0.09124638334705221 0.09124638334705221 0.07793627105656137 0.07793627105656137 0.07793627105656137 0.7921956964272134 0.7921956964272134 0.7921956964272134 0.7990395199114168 
0.7990395199114168 0.7990395199114168 0.7980035254529814 0.7980035254529814 0.7980035254529814 0.1313085192135391 0.1313085192135391 0.1313085192135391 0.1235712786323136 
0.1235712786323136 0.1235712786323136 0.1554835798608845 0.1554835798608845 0.1554835798608845 0.03390746336040465 0.03390746336040465 0.03390746336040465 0.04424696622197488 
0.04424696622197488 0.04424696622197488 0.0518933256008049 0.0518933256008049 0.0518933256008049 0.244339533597765 0.244339533597765 0.244339533597765 0.260912784315146 
0.260912784315146 0.260912784315146 0.2536733273523819 0.2536733273523819 0.2536733273523819 -0.5433551597612035 -0.5433551597612035 -0.5433551597612035 -0.5240802531024011 
-0.5240802531024011 -0.5240802531024011 -0.5430552905479226 -0.5430552905479226 -0.5430552905479226 -0.0004712513347924672 -0.0004712513347924672 -0.0004712513347924672 -0.6664193394883313 
-0.6664193394883313 -0.6664193394883313 -0.6582948244575375 -0.6582948244575375 -0.6582948244575375 -0.6477139477642866 -0.6477139477642866 -0.6477139477642866 0.6290432247115424 
0.6290432247115424 0.6290432247115424 0.6425046264009681 0.6425046264009681 0.6425046264009681 0.6684856429769128 0.6684856429769128 0.6684856429769128 -0.5184639581551995 
-0.5184639581551995 -0.5184639581551995 -0.4952674352806972 -0.4952674352806972 -0.4952674352806972 -0.5033757053987582 -0.5033757053987582 -0.5033757053987582 -0.7358058716822208 
-0.7358058716822208 -0.7358058716822208 -0.72711220644881 -0.72711220644881 -0.72711220644881 -0.7433927489348311 -0.7433927489348311 -0.7433927489348311 0.2001816116508071 
0.2001816116508071 0.2001816116508071 0.1952947287538795 0.1952947287538795 0.1952947287538795 0.1823063662497517 0.1823063662497517 0.1823063662497517 0.5500371976565015 
0.5500371976565015 0.5500371976565015 0.5561036668594844 0.5561036668594844 0.5561036668594844 0.6033258169608835 0.6033258169608835 0.6033258169608835 -0.1275644991638055 
-0.1275644991638055 -0.1275644991638055 -0.1117053252103666 -0.1117053252103666 -0.1117053252103666 -0.1040469166297029 -0.1040469166297029 -0.1040469166297029 0.5451967180294369 
0.5451967180294369 0.5451967180294369 0.5570209162048566 0.5570209162048566 0.5570209162048566 0.5338553388671434 0.5338553388671434 0.5338553388671434 -0.5758135432932654 
-0.5758135432932654 -0.5758135432932654 -0.5589152120331032 -0.5589152120331032 -0.5589152120331032 -0.5433318195749106 -0.5433318195749106 -0.5433318195749106 -0.7657773766328743 
-0.7657773766328743 -0.7657773766328743 -0.7511252389569539 -0.7511252389569539 -0.7511252389569539 -0.738377666761848 -0.738377666761848 -0.738377666761848 0.06629523879372695 
0.06629523879372695 0.06629523879372695 0.06633104203556321 0.06633104203556321 0.06633104203556321 0.06059116002508317 0.06059116002508317 0.06059116002508317 0.409249833385319 
0.409249833385319 0.409249833385319 0.4058972171719992 0.4058972171719992 0.4058972171719992 0.391536300602691 0.391536300602691 0.391536300602691 -0.2280656527097251 
-0.2280656527097251 -0.2280656527097251 -0.2326713568820664 -0.2326713568820664 -0.2326713568820664 -0.2486550539564817 -0.2486550539564817 -0.2486550539564817 0.08863982393498616 
0.08863982393498616 0.08863982393498616 0.08045716865045027 0.08045716865045027 0.08045716865045027 0.05856736775052772 0.05856736775052772 0.05856736775052772 -0.02639089336411588 
-0.02639089336411588 -0.02639089336411588 -0.03771750244725477 -0.03771750244725477 -0.03771750244725477 -0.05203794819409506 -0.05203794819409506 -0.05203794819409506 -0.1063953022612449 
-0.1063953022612449 -0.1063953022612449 -0.09083927694797672 -0.09083927694797672 -0.09083927694797672 -0.07428286370566353 -0.07428286370566353 -0.07428286370566353 0.7933547237406479 
0.7933547237406479 0.7933547237406479 0.7962165350580818 0.7962165350580818 0.7962165350580818 0.8008869124710835 0.8008869124710835 0.8008869124710835 0.3772388556155772 
0.3772388556155772 0.3772388556155772 0.3804493146080044 0.3804493146080044 0.3804493146080044 0.392421623400579 0.392421623400579 0.392421623400579 -0.1122877871807444 
-0.1122877871807444 -0.1122877871807444 -0.08951230944853451 -0.08951230944853451 -0.08951230944853451 -0.08011986603495605 -0.08011986603495605 -0.08011986603495605 -0.5765735871334824 