Title = Triangle100
FileType = Solution
Variables = q
Zone T = Triangle100
ZoneType = FETriangle
Nodes = 99072
Elements = 33024
DataPacking = Block
StrandID = 11
SolutionTime = 1
-0.5928934077558238 -0.5928934077558238 -0.5928934077558238 -0.5743900063241614 -0.5743900063241614 -0.5743900063241614 -0.5756224491403159 -0.5756224491403159 -0.5756224491403159 0.3022684908602795 
0.3022684908602795 0.3022684908602795 0.2723134343645439 0.2723134343645439 0.2723134343645439 -0.4871775259864427 -0.4871775259864427 -0.4871775259864427 -0.4871745956725685 
-0.4871745956725685 -0.4871745956725685 0.2338160935654305 0.2338160935654305 0.2338160935654305 0.2196435819898728 0.2196435819898728 0.2196435819898728 -0.7992537770088755 
-0.7992537770088755 -0.7992537770088755 -0.791277597274147 -0.791277597274147 -0.791277597274147 -0.01706411086546528 -0.01706411086546528 -0.01706411086546528 -0.02542352785388271 
-0.02542352785388271 -0.02542352785388271 0.5603931657012022 0.5603931657012022 0.5603931657012022 0.552259179053709 0.552259179053709 0.552259179053709 -0.3275668495127532 
-0.3275668495127532 -0.3275668495127532 -0.3109718935709586 -0.3109718935709586 -0.3109718935709586 0.04450435626257338 0.04450435626257338 0.04450435626257338 0.04558534128301611 
0.04558534128301611 0.04558534128301611 -0.3658407363616976 -0.3658407363616976 -0.3658407363616976 -0.4114987278213628 -0.4114987278213628 -0.4114987278213628 -0.3732212006948168 
-0.3732212006948168 -0.3732212006948168 -0.5863494262315152 -0.5863494262315152 -0.5863494262315152 -0.5731575023174224 -0.5731575023174224 -0.5731575023174224 0.1447290106944885 
0.1447290106944885 0.1447290106944885 0.1042463704830591 0.1042463704830591 0.1042463704830591 0.2354098753502713 0.2354098753502713 0.2354098753502713 0.2089568720893046 
0.2089568720893046 0.2089568720893046 0.3318488591812586 0.3318488591812586 0.3318488591812586 0.3445577294115671 0.3445577294115671 0.3445577294115671 0.3540631470850237 
0.3540631470850237 0.3540631470850237 0.3720149390238211 0.3720149390238211 0.3720149390238211 0.3832899732497336 0.3832899732497336 0.3832899732497336 -0.6834668537411441 
-0.6834668537411441 -0.6834668537411441 -0.66708007184894 -0.66708007184894 -0.66708007184894 -0.6571829176450902 -0.6571829176450902 -0.6571829176450902 0.5698725286433554 
0.5698725286433554 0.5698725286433554 0.5794439789165202 0.5794439789165202 0.5794439789165202 0.5529974515083305 0.5529974515083305 0.5529974515083305 -0.01163808854625316 
-0.01163808854625316 -0.01163808854625316 -0.01397083606345451 -0.01397083606345451 -0.01397083606345451 -0.01916371398500573 -0.01916371398500573 -0.01916371398500573 -0.2419924657222089 
-0.2419924657222089 -0.2419924657222089 -0.2420309888547335 -0.2420309888547335 -0.2420309888547335 -0.2273898206669171 -0.2273898206669171 -0.2273898206669171 -0.2519847694574868 
-0.2519847694574868 -0.2519847694574868 -0.2419167350173949 -0.2419167350173949 -0.2419167350173949 -0.2290277197432621 -0.2290277197432621 -0.2290277197432621 -0.2875684208446193 
-0.2875684208446193 -0.2875684208446193 -0.2705399326108003 -0.2705399326108003 -0.2705399326108003 -0.268486445021841 -0.268486445021841 -0.268486445021841 -0.8832086208079183 
-0.8832086208079183 -0.8832086208079183 -0.8825916975978434 -0.8825916975978434 -0.8825916975978434 0.2947045738361739 0.2947045738361739 0.2947045738361739 0.3035446360351841 
0.3035446360351841 0.3035446360351841 0.08810024259558182 0.08810024259558182 0.08810024259558182 0.08198539077744865 0.08198539077744865 0.08198539077744865 -0.2432926203911631 
-0.2432926203911631 -0.2432926203911631 -0.2691658990912628 -0.2691658990912628 -0.2691658990912628 -0.23123451373723 -0.23123451373723 -0.23123451373723 -0.2315236303235523 
-0.2315236303235523 -0.2315236303235523 -0.5987121441420404 -0.5987121441420404 -0.5987121441420404 -0.6167525103767399 -0.6167525103767399 -0.6167525103767399 0.8124544337619257 
0.8124544337619257 0.8124544337619257 0.8171315817574573 0.8171315817574573 0.8171315817574573 -0.3222342143383951 -0.3222342143383951 -0.3222342143383951 -0.293538958887536 
-0.293538958887536 -0.293538958887536 0.6187127391483107 0.6187127391483107 0.6187127391483107 0.6220701713488661 0.6220701713488661 0.6220701713488661 0.1764303114251982 
0.1764303114251982 0.1764303114251982 0.1691771932052943 0.1691771932052943 0.1691771932052943 -0.0150104088184591 -0.0150104088184591 -0.0150104088184591 -0.03040673674980549 
-0.03040673674980549 -0.03040673674980549 0.5177775521048615 0.5177775521048615 0.5177775521048615 0.5270761429211046 0.5270761429211046 0.5270761429211046 0.1166002530820354 
0.1166002530820354 0.1166002530820354 0.1072551200496887 0.1072551200496887 0.1072551200496887 0.7446513188578675 0.7446513188578675 0.7446513188578675 0.7551269718246446 
0.7551269718246446 0.7551269718246446 0.1079388647546197 0.1079388647546197 0.1079388647546197 0.1160220982669459 0.1160220982669459 0.1160220982669459 0.1295071132003299 
0.1295071132003299 0.1295071132003299 0.1232431843237315 0.1232431843237315 0.1232431843237315 -0.3911149358661592 -0.3911149358661592 -0.3911149358661592 -0.4022683487736456 
-0.4022683487736456 -0.4022683487736456 0.07522132146285834 0.07522132146285834 0.07522132146285834 0.05649224080984704 0.05649224080984704 0.05649224080984704 -0.5387312459047823 
-0.5387312459047823 -0.5387312459047823 -0.537808875324548 -0.537808875324548 -0.537808875324548 0.262709971579745 0.262709971579745 0.262709971579745 0.234109352125872 
0.234109352125872 0.234109352125872 -0.4308914759203102 -0.4308914759203102 -0.4308914759203102 -0.8347179515064772 -0.8347179515064772 -0.8347179515064772 -0.8226177594313595 
-0.8226177594313595 -0.8226177594313595 0.02145983251528425 0.02145983251528425 0.02145983251528425 0.02753768171833414 0.02753768171833414 0.02753768171833414 0.361223468356193 
0.361223468356193 0.361223468356193 0.4003181937649531 0.4003181937649531 0.4003181937649531 -0.8818858269622402 -0.8818858269622402 -0.8818858269622402 -0.87366608269533 
-0.87366608269533 -0.87366608269533 0.5277848159092393 0.5277848159092393 0.5277848159092393 0.5392022714817708 0.5392022714817708 0.5392022714817708 0.551711093757103 
0.551711093757103 0.551711093757103 0.5180206194704692 0.5180206194704692 0.5180206194704692 -0.8835584475295606 -0.8835584475295606 -0.8835584475295606 -0.8798185746662446 
-0.8798185746662446 -0.8798185746662446 -0.5899591175140402 -0.5899591175140402 -0.5899591175140402 -0.5846869460829098 -0.5846869460829098 -0.5846869460829098 -0.7345162752618806 
-0.7345162752618806 -0.7345162752618806 -0.7164391520949757 -0.7164391520949757 -0.7164391520949757 -0.222631826930563 -0.222631826930563 -0.222631826930563 -0.2248177053249008 
-0.2248177053249008 -0.2248177053249008 0.2886153802441528 0.2886153802441528 0.2886153802441528 0.2702900184744229 0.2702900184744229 0.2702900184744229 -0.02327464219251498 
-0.02327464219251498 -0.02327464219251498 -0.04694562337159741 -0.04694562337159741 -0.04694562337159741 0.2155648938013131 0.2155648938013131 0.2155648938013131 0.1748469593100803 
0.1748469593100803 0.1748469593100803 0.1760217234670059 0.1760217234670059 0.1760217234670059 0.1737682892865376 0.1737682892865376 0.1737682892865376 -0.07744913921607403 
-0.07744913921607403 -0.07744913921607403 -0.1215087030671786 -0.1215087030671786 -0.1215087030671786 -0.2370182922408492 -0.2370182922408492 -0.2370182922408492 -0.2116277067028249 
-0.2116277067028249 -0.2116277067028249 -0.2748877508845709 -0.2748877508845709 -0.2748877508845709 -0.25877789430223 -0.25877789430223 -0.25877789430223 -0.2389290729635189 
-0.2389290729635189 -0.2389290729635189 0.5768135463971159 0.5768135463971159 0.5768135463971159 0.5458885444691969 0.5458885444691969 0.5458885444691969 0.5327744797845531 
0.5327744797845531 0.5327744797845531 0.6543774472744082 0.6543774472744082 0.6543774472744082 0.6619951109800737 0.6619951109800737 0.6619951109800737 0.6734786810351997 
0.6734786810351997 0.6734786810351997 -0.3436514623285728 -0.3436514623285728 -0.3436514623285728 -0.3407407717454642 -0.3407407717454642 -0.3407407717454642 -0.3313666778100016 
-0.3313666778100016 -0.3313666778100016 0.742945363128418 0.742945363128418 0.742945363128418 0.7541438096189187 0.7541438096189187 0.7541438096189187 0.7633689841822573 
0.7633689841822573 0.7633689841822573 -0.006379328202957123 -0.006379328202957123 -0.006379328202957123 -0.01593154625912937 -0.01593154625912937 -0.01593154625912937 -0.5610288445781498 
-0.5610288445781498 -0.5610288445781498 -0.5554817369980751 -0.5554817369980751 -0.5554817369980751 -0.5297175266152251 -0.5297175266152251 -0.5297175266152251 0.6154528286828064 
0.6154528286828064 0.6154528286828064 0.6328986710759703 0.6328986710759703 0.6328986710759703 0.6483432877119304 0.6483432877119304 0.6483432877119304 0.6015716169906965 
0.6015716169906965 0.6015716169906965 0.5968894231361774 0.5968894231361774 0.5968894231361774 0.6010224055582094 0.6010224055582094 0.6010224055582094 0.07066441967911194 
0.07066441967911194 0.07066441967911194 0.09284237017094422 0.09284237017094422 0.09284237017094422 0.1068673123685648 0.1068673123685648 0.1068673123685648 -0.2042758769913802 
-0.2042758769913802 -0.2042758769913802 -0.2025865791197982 -0.2025865791197982 -0.2025865791197982 -0.1909293675959468 -0.1909293675959468 -0.1909293675959468 -0.7097739140995956 
-0.7097739140995956 -0.7097739140995956 -0.6908351109179952 -0.6908351109179952 -0.6908351109179952 -0.6894762817570147 -0.6894762817570147 -0.6894762817570147 -0.1216029670716627 
-0.1216029670716627 -0.1216029670716627 -0.1415375405983097 -0.1415375405983097 -0.1415375405983097 -0.1548603650436643 -0.1548603650436643 -0.1548603650436643 -0.2234933218462008 
-0.2234933218462008 -0.2234933218462008 -0.2052942768408172 -0.2052942768408172 -0.2052942768408172 0.2837212386922808 0.2837212386922808 0.2837212386922808 0.2931878295369313 
0.2931878295369313 0.2931878295369313 0.305614690720815 0.305614690720815 0.305614690720815 0.582595856131668 0.582595856131668 0.582595856131668 0.5640965176785079 
0.5640965176785079 0.5640965176785079 -0.2598608647388095 -0.2598608647388095 -0.2598608647388095 -0.2691469908701641 -0.2691469908701641 -0.2691469908701641 -0.371467497362544 
-0.371467497362544 -0.371467497362544 -0.4012194548518855 -0.4012194548518855 -0.4012194548518855 0.5647526781901893 0.5647526781901893 0.5647526781901893 0.5961867024679661 
0.5961867024679661 0.5961867024679661 -0.6168950976033932 -0.6168950976033932 -0.6168950976033932 -0.5995067083871906 -0.5995067083871906 -0.5995067083871906 -0.6012813577998852 
-0.6012813577998852 -0.6012813577998852 -0.5980206444798699 -0.5980206444798699 -0.5980206444798699 0.264121880185503 0.264121880185503 0.264121880185503 0.2528843590220942 
0.2528843590220942 0.2528843590220942 -0.8297485618635096 -0.8297485618635096 -0.8297485618635096 -0.8237454960717412 -0.8237454960717412 -0.8237454960717412 0.01671865894641288 
0.01671865894641288 0.01671865894641288 0.02275035377085126 0.02275035377085126 0.02275035377085126 0.2065219299257193 0.2065219299257193 0.2065219299257193 0.1706064411979809 
0.1706064411979809 0.1706064411979809 -0.2064060870298924 -0.2064060870298924 -0.2064060870298924 -0.1980995833758014 -0.1980995833758014 -0.1980995833758014 -0.3890955687344184 
-0.3890955687344184 -0.3890955687344184 -0.3940356348109524 -0.3940356348109524 -0.3940356348109524 0.2901637045111269 0.2901637045111269 0.2901637045111269 0.2869732730909783 
0.2869732730909783 0.2869732730909783 -0.08714617897233845 -0.08714617897233845 -0.08714617897233845 -0.06662919196445991 -0.06662919196445991 -0.06662919196445991 -0.8805264010823772 
-0.8805264010823772 -0.8805264010823772 -0.8814749978569082 -0.8814749978569082 -0.8814749978569082 0.6218843123548672 0.6218843123548672 0.6218843123548672 0.6283198219158372 
0.6283198219158372 0.6283198219158372 0.6247531472611086 0.6247531472611086 0.6247531472611086 0.6320975185788424 0.6320975185788424 0.6320975185788424 -0.6071197793798967 
-0.6071197793798967 -0.6071197793798967 -0.6185103667279876 -0.6185103667279876 -0.6185103667279876 0.2170347889005634 0.2170347889005634 0.2170347889005634 0.2267543098464482 
0.2267543098464482 0.2267543098464482 0.1274463380453739 0.1274463380453739 0.1274463380453739 0.1278575918314991 0.1278575918314991 0.1278575918314991 -0.497198707990769 
-0.497198707990769 -0.497198707990769 -0.4870587996374063 -0.4870587996374063 -0.4870587996374063 0.1774043685840204 0.1774043685840204 0.1774043685840204 0.1624001846842958 
0.1624001846842958 0.1624001846842958 -0.839530875603727 -0.839530875603727 -0.839530875603727 -0.8440458733538292 -0.8440458733538292 -0.8440458733538292 0.06961594275784341 
0.06961594275784341 0.06961594275784341 0.07421530702030105 0.07421530702030105 0.07421530702030105 0.5469714858814902 0.5469714858814902 0.5469714858814902 0.5220597406053697 
0.5220597406053697 0.5220597406053697 0.4506067724493519 0.4506067724493519 0.4506067724493519 0.4474082041730316 0.4474082041730316 0.4474082041730316 0.03049066602817972 
0.03049066602817972 0.03049066602817972 0.02396870252367824 0.02396870252367824 0.02396870252367824 0.09410253582313891 0.09410253582313891 0.09410253582313891 0.1012178029714955 
0.1012178029714955 0.1012178029714955 -0.2234844802116244 -0.2234844802116244 -0.2234844802116244 -0.2073081226340736 -0.2073081226340736 -0.2073081226340736 0.5411798188150407 
0.5411798188150407 0.5411798188150407 0.5199093730607678 0.5199093730607678 0.5199093730607678 -0.2086841371475253 -0.2086841371475253 -0.2086841371475253 -0.2050283364122124 
-0.2050283364122124 -0.2050283364122124 -0.1952725493648895 -0.1952725493648895 -0.1952725493648895 -0.1742182290181205 -0.1742182290181205 -0.1742182290181205 -0.6849844053642219 
-0.6849844053642219 -0.6849844053642219 -0.6902619445896631 -0.6902619445896631 -0.6902619445896631 -0.8860219964788124 -0.8860219964788124 -0.8860219964788124 -0.8852627804080271 
-0.8852627804080271 -0.8852627804080271 0.5402633756905764 0.5402633756905764 0.5402633756905764 -0.1357918638577156 -0.1357918638577156 -0.1357918638577156 -0.1266699465770706 
-0.1266699465770706 -0.1266699465770706 0.8591347937954851 0.8591347937954851 0.8591347937954851 0.8695951620943756 0.8695951620943756 0.8695951620943756 0.8333227617192376 
0.8333227617192376 0.8333227617192376 0.8350540374597253 0.8350540374597253 0.8350540374597253 -0.08806849151907406 -0.08806849151907406 -0.08806849151907406 -0.08177958527850598 
-0.08177958527850598 -0.08177958527850598 0.1781371737309759 0.1781371737309759 0.1781371737309759 0.1774339267152141 0.1774339267152141 0.1774339267152141 0.07960583121285381 
0.07960583121285381 0.07960583121285381 0.07900577855983765 0.07900577855983765 0.07900577855983765 -0.205714270367813 -0.205714270367813 -0.205714270367813 -0.2291063562535292 
-0.2291063562535292 -0.2291063562535292 0.6768234439473796 0.6768234439473796 0.6768234439473796 0.6545129206454605 0.6545129206454605 0.6545129206454605 -0.5842427255893957 
-0.5842427255893957 -0.5842427255893957 -0.5865968043225344 -0.5865968043225344 -0.5865968043225344 0.6471543035294013 0.6471543035294013 0.6471543035294013 0.6424708686680551 
0.6424708686680551 0.6424708686680551 -0.01331453224140778 -0.01331453224140778 -0.01331453224140778 -0.1652730613629579 -0.1652730613629579 -0.1652730613629579 -0.1569870832494075 
-0.1569870832494075 -0.1569870832494075 -0.3382858228084129 -0.3382858228084129 -0.3382858228084129 -0.3392628263585916 -0.3392628263585916 -0.3392628263585916 0.1660519848681336 
0.1660519848681336 0.1660519848681336 0.175338573360749 0.175338573360749 0.175338573360749 0.07941128374613531 0.07941128374613531 0.07941128374613531 0.0900397601810516 
0.0900397601810516 0.0900397601810516 -0.4756919787460574 -0.4756919787460574 -0.4756919787460574 -0.4855768256650458 -0.4855768256650458 -0.4855768256650458 -0.2949177469807908 
-0.2949177469807908 -0.2949177469807908 -0.2050459991001728 -0.2050459991001728 -0.2050459991001728 -0.2306326835543961 -0.2306326835543961 -0.2306326835543961 0.2465954488129063 
0.2465954488129063 0.2465954488129063 0.2546474181302724 0.2546474181302724 0.2546474181302724 0.7352869308164396 0.7352869308164396 0.7352869308164396 0.7275361563702437 
0.7275361563702437 0.7275361563702437 0.7712621582191744 0.7712621582191744 0.7712621582191744 0.7861804338469762 0.7861804338469762 0.7861804338469762 0.300040315042528 
0.300040315042528 0.300040315042528 0.27776386057789 0.27776386057789 0.27776386057789 -0.769399939840211 -0.769399939840211 -0.769399939840211 -0.7595512671678689 
-0.7595512671678689 -0.7595512671678689 -0.003458268380872234 -0.003458268380872234 -0.003458268380872234 -0.01327863974443272 -0.01327863974443272 -0.01327863974443272 -0.3494935424518134 
-0.3494935424518134 -0.3494935424518134 -0.3407903808049096 -0.3407903808049096 -0.3407903808049096 -0.6399106712373803 -0.6399106712373803 -0.6399106712373803 -0.6118231636384208 
-0.6118231636384208 -0.6118231636384208 -0.1805395828566549 -0.1805395828566549 -0.1805395828566549 -0.1968890166532229 -0.1968890166532229 -0.1968890166532229 -0.2526539884247765 
-0.2526539884247765 -0.2526539884247765 -0.2448409628911425 -0.2448409628911425 -0.2448409628911425 0.3848167714929621 0.3848167714929621 0.3848167714929621 0.3913430160745791 
0.3913430160745791 0.3913430160745791 -0.1629542452301544 -0.1629542452301544 -0.1629542452301544 -0.1709223071762355 -0.1709223071762355 -0.1709223071762355 0.08700720686818619 
0.08700720686818619 0.08700720686818619 0.09122639208981118 0.09122639208981118 0.09122639208981118 0.08909091627250822 0.08909091627250822 0.08909091627250822 0.0235320567352031 
0.0235320567352031 0.0235320567352031 0.3821272345597385 0.3821272345597385 0.3821272345597385 0.7738472274102777 0.7738472274102777 0.7738472274102777 0.7516387305464535 
0.7516387305464535 0.7516387305464535 0.1326803821131927 0.1326803821131927 0.1326803821131927 0.1101569975204903 0.1101569975204903 0.1101569975204903 -0.8790599620430548 
-0.8790599620430548 -0.8790599620430548 -0.8759326456014898 -0.8759326456014898 -0.8759326456014898 0.03130184275531263 0.03130184275531263 0.03130184275531263 0.0341688156606318 
0.0341688156606318 0.0341688156606318 -0.6159071512653564 -0.6159071512653564 -0.6159071512653564 -0.5799624436829798 -0.5799624436829798 -0.5799624436829798 0.05493888950821533 
0.05493888950821533 0.05493888950821533 0.09285422133688886 0.09285422133688886 0.09285422133688886 0.5641261978268823 0.5641261978268823 0.5641261978268823 0.5329115275840872 
0.5329115275840872 0.5329115275840872 0.1255832271780636 0.1255832271780636 0.1255832271780636 0.08863651382653787 0.08863651382653787 0.08863651382653787 0.7734907061935871 
0.7734907061935871 0.7734907061935871 0.7925908635314447 0.7925908635314447 0.7925908635314447 0.59374736290214 0.59374736290214 0.59374736290214 0.6337981501460848 
0.6337981501460848 0.6337981501460848 -0.192525520485096 -0.192525520485096 -0.192525520485096 -0.2316306972489315 -0.2316306972489315 -0.2316306972489315 0.01740244568836555 
0.01740244568836555 0.01740244568836555 -0.01265384421417241 -0.01265384421417241 -0.01265384421417241 -0.4845244314010498 -0.4845244314010498 -0.4845244314010498 -0.5012877287820707 
-0.5012877287820707 -0.5012877287820707 -0.02457143465868319 -0.02457143465868319 -0.02457143465868319 0.004290529782625256 0.004290529782625256 0.004290529782625256 -0.4684819803653396 
-0.4684819803653396 -0.4684819803653396 -0.4643267689690702 -0.4643267689690702 -0.4643267689690702 -0.05203903295944551 -0.05203903295944551 -0.05203903295944551 -0.03098628481666515 
-0.03098628481666515 -0.03098628481666515 0.3998209192899816 0.3998209192899816 0.3998209192899816 -0.188074522976068 -0.188074522976068 -0.188074522976068 -0.1756220700255696 
-0.1756220700255696 -0.1756220700255696 0.01607093546190218 0.01607093546190218 0.01607093546190218 0.005563521065261722 0.005563521065261722 0.005563521065261722 0.7196766060362696 
0.7196766060362696 0.7196766060362696 0.6986386862069038 0.6986386862069038 0.6986386862069038 0.2607303079133741 0.2607303079133741 0.2607303079133741 0.2228985819011249 
0.2228985819011249 0.2228985819011249 0.244499383068292 0.244499383068292 0.244499383068292 0.2334251124325353 0.2334251124325353 0.2334251124325353 0.09479019045488449 
0.09479019045488449 0.09479019045488449 0.09682426643025173 0.09682426643025173 0.09682426643025173 -0.00784152943945491 -0.00784152943945491 -0.00784152943945491 -0.04145599618133963 
-0.04145599618133963 -0.04145599618133963 -0.3961534383625767 -0.3961534383625767 -0.3961534383625767 -0.4026823388472605 -0.4026823388472605 -0.4026823388472605 0.6499129292173795 
0.6499129292173795 0.6499129292173795 0.6464764712201949 0.6464764712201949 0.6464764712201949 0.3527640410783695 0.3527640410783695 0.3527640410783695 0.3327763282698198 
0.3327763282698198 0.3327763282698198 0.1121003925365164 0.1121003925365164 0.1121003925365164 0.1180578681912515 0.1180578681912515 0.1180578681912515 -0.3305940924474692 
-0.3305940924474692 -0.3305940924474692 -0.2996076991738337 -0.2996076991738337 -0.2996076991738337 -0.053614213434142 -0.053614213434142 -0.053614213434142 -0.07033275800089442 
-0.07033275800089442 -0.07033275800089442 -0.7642100652877184 -0.7642100652877184 -0.7642100652877184 -0.7520119921366014 -0.7520119921366014 -0.7520119921366014 -0.1361922270879785 
-0.1361922270879785 -0.1361922270879785 -0.1627791221776981 -0.1627791221776981 -0.1627791221776981 0.6498362414617194 0.6498362414617194 0.6498362414617194 0.6254055687061698 
0.6254055687061698 0.6254055687061698 0.675771494917347 0.675771494917347 0.675771494917347 0.696262935112864 0.696262935112864 0.696262935112864 -0.1314319548391696 
-0.1314319548391696 -0.1314319548391696 -0.1316978043955028 -0.1316978043955028 -0.1316978043955028 0.5598995894810785 0.5598995894810785 0.5598995894810785 0.5874343367045562 
0.5874343367045562 0.5874343367045562 0.055371113434122 0.055371113434122 0.055371113434122 0.04570277705740634 0.04570277705740634 0.04570277705740634 -0.5905402798680033 
-0.5905402798680033 -0.5905402798680033 -0.5702480426132996 -0.5702480426132996 -0.5702480426132996 -0.8237090945895253 -0.8237090945895253 -0.8237090945895253 -0.8112860061577631 
-0.8112860061577631 -0.8112860061577631 0.488842312371405 0.488842312371405 0.488842312371405 0.5267579445281341 0.5267579445281341 0.5267579445281341 0.05220573611327429 
0.05220573611327429 0.05220573611327429 0.08643969525266568 0.08643969525266568 0.08643969525266568 -0.6293146180097358 -0.6293146180097358 -0.6293146180097358 -0.6147334910054055 
-0.6147334910054055 -0.6147334910054055 0.1348600880492662 0.1348600880492662 0.1348600880492662 0.1362787575632753 0.1362787575632753 0.1362787575632753 -0.3976401361989769 
-0.3976401361989769 -0.3976401361989769 -0.3709722915741879 -0.3709722915741879 -0.3709722915741879 0.04550659945860043 0.04550659945860043 0.04550659945860043 0.04627771064490203 
0.04627771064490203 0.04627771064490203 -0.3278806977312301 -0.3278806977312301 -0.3278806977312301 -0.309074589134596 -0.309074589134596 -0.309074589134596 -0.598683743086649 
-0.598683743086649 -0.598683743086649 -0.5847218610973417 -0.5847218610973417 -0.5847218610973417 0.2711967448135215 0.2711967448135215 0.2711967448135215 0.3119972449043354 
0.3119972449043354 0.3119972449043354 0.2989783553861176 0.2989783553861176 0.2989783553861176 0.2830092341232729 0.2830092341232729 0.2830092341232729 0.1995063341769688 
0.1995063341769688 0.1995063341769688 0.2328440357890179 0.2328440357890179 0.2328440357890179 0.3682174908614517 0.3682174908614517 0.3682174908614517 0.3901787255044298 
0.3901787255044298 0.3901787255044298 0.1600650872379713 0.1600650872379713 0.1600650872379713 0.1837895096169566 0.1837895096169566 0.1837895096169566 -0.04293459535918627 
-0.04293459535918627 -0.04293459535918627 -0.03840500111216268 -0.03840500111216268 -0.03840500111216268 -0.2191064986423903 -0.2191064986423903 -0.2191064986423903 -0.1886848364812356 
-0.1886848364812356 -0.1886848364812356 0.123112384972221 0.123112384972221 0.123112384972221 0.1501787296465149 0.1501787296465149 0.1501787296465149 0.1267422358769662 
0.1267422358769662 0.1267422358769662 0.162753011281073 0.162753011281073 0.162753011281073 -0.7866908277197698 -0.7866908277197698 -0.7866908277197698 -0.800905057897079 
-0.800905057897079 -0.800905057897079 -0.2180793990887892 -0.2180793990887892 -0.2180793990887892 -0.1784006854198987 -0.1784006854198987 -0.1784006854198987 -0.6872966817175118 
-0.6872966817175118 -0.6872966817175118 -0.6664360137626835 -0.6664360137626835 -0.6664360137626835 0.02887787906897785 0.02887787906897785 0.02887787906897785 0.06413167629341077 
0.06413167629341077 0.06413167629341077 -0.3609589994957119 -0.3609589994957119 -0.3609589994957119 -0.3325869863164306 -0.3325869863164306 -0.3325869863164306 -0.3379448054056505 
-0.3379448054056505 -0.3379448054056505 -0.3483948901234686 -0.3483948901234686 -0.3483948901234686 0.02285402968399836 0.02285402968399836 0.02285402968399836 0.01604392966823018 
0.01604392966823018 0.01604392966823018 0.01912170157999012 0.01912170157999012 0.01912170157999012 -0.07598353457236481 -0.07598353457236481 -0.07598353457236481 -0.06716916740285706 
-0.06716916740285706 -0.06716916740285706 -0.102782464612765 -0.102782464612765 -0.102782464612765 0.7135040285625425 0.7135040285625425 0.7135040285625425 0.7007034656459742 
0.7007034656459742 0.7007034656459742 0.6852678188956941 0.6852678188956941 0.6852678188956941 0.3268396960426969 0.3268396960426969 0.3268396960426969 0.3293973315581813 
0.3293973315581813 0.3293973315581813 0.3051264274888799 0.3051264274888799 0.3051264274888799 0.01991183431830903 0.01991183431830903 0.01991183431830903 0.02161007332071144 
0.02161007332071144 0.02161007332071144 0.03361431055839315 0.03361431055839315 0.03361431055839315 0.227728318529318 0.227728318529318 0.227728318529318 0.2091067007110172 
0.2091067007110172 0.2091067007110172 0.1786116211463074 0.1786116211463074 0.1786116211463074 -0.816510265366478 -0.816510265366478 -0.816510265366478 0.1955438602130896 
0.1955438602130896 0.1955438602130896 0.2239444423304027 0.2239444423304027 0.2239444423304027 0.2266982532970487 0.2266982532970487 0.2266982532970487 -0.5706296529466534 
-0.5706296529466534 -0.5706296529466534 -0.5580163569488117 -0.5580163569488117 -0.5580163569488117 -0.5160913769204233 -0.5160913769204233 -0.5160913769204233 0.3007097858593954 
0.3007097858593954 0.3007097858593954 0.3097993762351057 0.3097993762351057 0.3097993762351057 0.3305369132064602 0.3305369132064602 0.3305369132064602 0.08874644967504637 
0.08874644967504637 0.08874644967504637 0.05431116754302651 0.05431116754302651 0.05431116754302651 0.03814182623076517 0.03814182623076517 0.03814182623076517 0.238656385117308 
0.238656385117308 0.238656385117308 0.2209765216402391 0.2209765216402391 0.2209765216402391 0.205722251534876 0.205722251534876 0.205722251534876 0.6466906669800873 
0.6466906669800873 0.6466906669800873 0.6541180846089915 0.6541180846089915 0.6541180846089915 0.6033020309710675 0.6033020309710675 0.6033020309710675 -0.1718677179611015 
-0.1718677179611015 -0.1718677179611015 -0.1550813394570712 -0.1550813394570712 -0.1550813394570712 -0.144294318072137 -0.144294318072137 -0.144294318072137 0.1592582792001986 
0.1592582792001986 0.1592582792001986 0.1691439260687177 0.1691439260687177 0.1691439260687177 0.1953786468501677 0.1953786468501677 0.1953786468501677 0.2730261901902446 
0.2730261901902446 0.2730261901902446 0.278966854037476 0.278966854037476 0.278966854037476 0.2784273669975426 0.2784273669975426 0.2784273669975426 -0.03341038042514943 
-0.03341038042514943 -0.03341038042514943 -0.01312365058551345 -0.01312365058551345 -0.01312365058551345 0.009135958272743426 0.009135958272743426 0.009135958272743426 0.7629683883278731 
0.7629683883278731 0.7629683883278731 0.7746632099509987 0.7746632099509987 0.7746632099509987 0.7841389226043455 0.7841389226043455 0.7841389226043455 -0.1962241219981179 
-0.1962241219981179 -0.1962241219981179 -0.2148706409040365 -0.2148706409040365 -0.2148706409040365 -0.2107162559827083 -0.2107162559827083 -0.2107162559827083 -0.4070735403033819 
-0.4070735403033819 -0.4070735403033819 -0.4216908433775519 -0.4216908433775519 -0.4216908433775519 -0.4359689885208869 -0.4359689885208869 -0.4359689885208869 -0.8670296566118454 
-0.8670296566118454 -0.8670296566118454 -0.8732210831925684 -0.8732210831925684 -0.8732210831925684 -0.8783034403435864 -0.8783034403435864 -0.8783034403435864 -0.0336631358433636 
-0.0336631358433636 -0.0336631358433636 -0.02587295248511965 -0.02587295248511965 -0.02587295248511965 -0.01680490606153594 -0.01680490606153594 -0.01680490606153594 0.1135768652154418 
0.1135768652154418 0.1135768652154418 0.1028963569155981 0.1028963569155981 0.1028963569155981 0.09075235245185449 0.09075235245185449 0.09075235245185449 -0.2728454036097419 
-0.2728454036097419 -0.2728454036097419 -0.2665519579889624 -0.2665519579889624 -0.2665519579889624 -0.253052951339559 -0.253052951339559 -0.253052951339559 0.7774628146259732 
0.7774628146259732 0.7774628146259732 0.7833086730747543 0.7833086730747543 0.7833086730747543 0.7783200504600198 0.7783200504600198 0.7783200504600198 0.1884291072579602 
0.1884291072579602 0.1884291072579602 0.1665375055124017 0.1665375055124017 0.1665375055124017 0.1540332427683062 0.1540332427683062 0.1540332427683062 0.07786866629951034 
0.07786866629951034 0.07786866629951034 0.1049285006158957 0.1049285006158957 0.1049285006158957 0.1082200452450796 0.1082200452450796 0.1082200452450796 0.3245212267989241 
0.3245212267989241 0.3245212267989241 0.3215216924437063 0.3215216924437063 0.3215216924437063 0.3067788704713346 0.3067788704713346 0.3067788704713346 -0.140641872025732 